+ 0.5 0 1 cbr 400 ------- 0 0.0 2.0 0 0
- 0.5 0 1 cbr 400 ------- 0 0.0 2.0 0 0
+ 0.505 0 1 cbr 400 ------- 0 0.0 2.0 1 1
- 0.505 0 1 cbr 400 ------- 0 0.0 2.0 1 1
+ 0.51 0 1 cbr 400 ------- 0 0.0 2.0 2 2
- 0.51 0 1 cbr 400 ------- 0 0.0 2.0 2 2
+ 0.515 0 1 cbr 400 ------- 0 0.0 2.0 3 3
- 0.515 0 1 cbr 400 ------- 0 0.0 2.0 3 3
+ 0.52 0 1 cbr 400 ------- 0 0.0 2.0 4 4
- 0.52 0 1 cbr 400 ------- 0 0.0 2.0 4 4
r 0.5232 0 1 cbr 400 ------- 0 0.0 2.0 0 0
+ 0.5232 1 2 cbr 400 ------- 0 0.0 2.0 0 0
- 0.5232 1 2 cbr 400 ------- 0 0.0 2.0 0 0
+ 0.525 0 1 cbr 400 ------- 0 0.0 2.0 5 5
- 0.525 0 1 cbr 400 ------- 0 0.0 2.0 5 5
r 0.5282 0 1 cbr 400 ------- 0 0.0 2.0 1 1
+ 0.5282 1 2 cbr 400 ------- 0 0.0 2.0 1 1
+ 0.53 0 1 cbr 400 ------- 0 0.0 2.0 6 6
- 0.53 0 1 cbr 400 ------- 0 0.0 2.0 6 6
r 0.5332 0 1 cbr 400 ------- 0 0.0 2.0 2 2
+ 0.5332 1 2 cbr 400 ------- 0 0.0 2.0 2 2
+ 0.535 0 1 cbr 400 ------- 0 0.0 2.0 7 7
- 0.535 0 1 cbr 400 ------- 0 0.0 2.0 7 7
r 0.5382 0 1 cbr 400 ------- 0 0.0 2.0 3 3
+ 0.5382 1 2 cbr 400 ------- 0 0.0 2.0 3 3
+ 0.54 0 1 cbr 400 ------- 0 0.0 2.0 8 8
- 0.54 0 1 cbr 400 ------- 0 0.0 2.0 8 8
r 0.5432 0 1 cbr 400 ------- 0 0.0 2.0 4 4
+ 0.5432 1 2 cbr 400 ------- 0 0.0 2.0 4 4
+ 0.545 0 1 cbr 400 ------- 0 0.0 2.0 9 9
- 0.545 0 1 cbr 400 ------- 0 0.0 2.0 9 9
r 0.5482 0 1 cbr 400 ------- 0 0.0 2.0 5 5
+ 0.5482 1 2 cbr 400 ------- 0 0.0 2.0 5 5
+ 0.55 0 1 cbr 400 ------- 0 0.0 2.0 10 10
- 0.55 0 1 cbr 400 ------- 0 0.0 2.0 10 10
r 0.5532 0 1 cbr 400 ------- 0 0.0 2.0 6 6
+ 0.5532 1 2 cbr 400 ------- 0 0.0 2.0 6 6
+ 0.555 0 1 cbr 400 ------- 0 0.0 2.0 11 11
- 0.555 0 1 cbr 400 ------- 0 0.0 2.0 11 11
- 0.5552 1 2 cbr 400 ------- 0 0.0 2.0 1 1
r 0.5582 0 1 cbr 400 ------- 0 0.0 2.0 7 7
+ 0.5582 1 2 cbr 400 ------- 0 0.0 2.0 7 7
+ 0.56 0 1 cbr 400 ------- 0 0.0 2.0 12 12
- 0.56 0 1 cbr 400 ------- 0 0.0 2.0 12 12
r 0.5632 0 1 cbr 400 ------- 0 0.0 2.0 8 8
+ 0.5632 1 2 cbr 400 ------- 0 0.0 2.0 8 8
+ 0.565 0 1 cbr 400 ------- 0 0.0 2.0 13 13
- 0.565 0 1 cbr 400 ------- 0 0.0 2.0 13 13
r 0.5682 0 1 cbr 400 ------- 0 0.0 2.0 9 9
+ 0.5682 1 2 cbr 400 ------- 0 0.0 2.0 9 9
+ 0.57 0 1 cbr 400 ------- 0 0.0 2.0 14 14
- 0.57 0 1 cbr 400 ------- 0 0.0 2.0 14 14
r 0.5732 0 1 cbr 400 ------- 0 0.0 2.0 10 10
+ 0.5732 1 2 cbr 400 ------- 0 0.0 2.0 10 10
+ 0.575 0 1 cbr 400 ------- 0 0.0 2.0 15 15
- 0.575 0 1 cbr 400 ------- 0 0.0 2.0 15 15
r 0.5752 1 2 cbr 400 ------- 0 0.0 2.0 0 0
r 0.5782 0 1 cbr 400 ------- 0 0.0 2.0 11 11
+ 0.5782 1 2 cbr 400 ------- 0 0.0 2.0 11 11
d 0.5782 1 2 cbr 400 ------- 0 0.0 2.0 11 11
+ 0.58 0 1 cbr 400 ------- 0 0.0 2.0 16 16
- 0.58 0 1 cbr 400 ------- 0 0.0 2.0 16 16
r 0.5832 0 1 cbr 400 ------- 0 0.0 2.0 12 12
+ 0.5832 1 2 cbr 400 ------- 0 0.0 2.0 12 12
d 0.5832 1 2 cbr 400 ------- 0 0.0 2.0 12 12
+ 0.585 0 1 cbr 400 ------- 0 0.0 2.0 17 17
- 0.585 0 1 cbr 400 ------- 0 0.0 2.0 17 17
- 0.5872 1 2 cbr 400 ------- 0 0.0 2.0 2 2
r 0.5882 0 1 cbr 400 ------- 0 0.0 2.0 13 13
+ 0.5882 1 2 cbr 400 ------- 0 0.0 2.0 13 13
+ 0.59 0 1 cbr 400 ------- 0 0.0 2.0 18 18
- 0.59 0 1 cbr 400 ------- 0 0.0 2.0 18 18
r 0.5932 0 1 cbr 400 ------- 0 0.0 2.0 14 14
+ 0.5932 1 2 cbr 400 ------- 0 0.0 2.0 14 14
d 0.5932 1 2 cbr 400 ------- 0 0.0 2.0 14 14
+ 0.595 0 1 cbr 400 ------- 0 0.0 2.0 19 19
- 0.595 0 1 cbr 400 ------- 0 0.0 2.0 19 19
r 0.5982 0 1 cbr 400 ------- 0 0.0 2.0 15 15
+ 0.5982 1 2 cbr 400 ------- 0 0.0 2.0 15 15
d 0.5982 1 2 cbr 400 ------- 0 0.0 2.0 15 15
+ 0.6 0 1 cbr 400 ------- 0 0.0 2.0 20 20
- 0.6 0 1 cbr 400 ------- 0 0.0 2.0 20 20
r 0.6032 0 1 cbr 400 ------- 0 0.0 2.0 16 16
+ 0.6032 1 2 cbr 400 ------- 0 0.0 2.0 16 16
d 0.6032 1 2 cbr 400 ------- 0 0.0 2.0 16 16
+ 0.605 0 1 cbr 400 ------- 0 0.0 2.0 21 21
- 0.605 0 1 cbr 400 ------- 0 0.0 2.0 21 21
r 0.6072 1 2 cbr 400 ------- 0 0.0 2.0 1 1
r 0.6082 0 1 cbr 400 ------- 0 0.0 2.0 17 17
+ 0.6082 1 2 cbr 400 ------- 0 0.0 2.0 17 17
d 0.6082 1 2 cbr 400 ------- 0 0.0 2.0 17 17
+ 0.61 0 1 cbr 400 ------- 0 0.0 2.0 22 22
- 0.61 0 1 cbr 400 ------- 0 0.0 2.0 22 22
r 0.6132 0 1 cbr 400 ------- 0 0.0 2.0 18 18
+ 0.6132 1 2 cbr 400 ------- 0 0.0 2.0 18 18
d 0.6132 1 2 cbr 400 ------- 0 0.0 2.0 18 18
+ 0.615 0 1 cbr 400 ------- 0 0.0 2.0 23 23
- 0.615 0 1 cbr 400 ------- 0 0.0 2.0 23 23
r 0.6182 0 1 cbr 400 ------- 0 0.0 2.0 19 19
+ 0.6182 1 2 cbr 400 ------- 0 0.0 2.0 19 19
d 0.6182 1 2 cbr 400 ------- 0 0.0 2.0 19 19
- 0.6192 1 2 cbr 400 ------- 0 0.0 2.0 3 3
+ 0.62 0 1 cbr 400 ------- 0 0.0 2.0 24 24
- 0.62 0 1 cbr 400 ------- 0 0.0 2.0 24 24
r 0.6232 0 1 cbr 400 ------- 0 0.0 2.0 20 20
+ 0.6232 1 2 cbr 400 ------- 0 0.0 2.0 20 20
+ 0.625 0 1 cbr 400 ------- 0 0.0 2.0 25 25
- 0.625 0 1 cbr 400 ------- 0 0.0 2.0 25 25
r 0.6282 0 1 cbr 400 ------- 0 0.0 2.0 21 21
+ 0.6282 1 2 cbr 400 ------- 0 0.0 2.0 21 21
d 0.6282 1 2 cbr 400 ------- 0 0.0 2.0 21 21
+ 0.63 0 1 cbr 400 ------- 0 0.0 2.0 26 26
- 0.63 0 1 cbr 400 ------- 0 0.0 2.0 26 26
r 0.6332 0 1 cbr 400 ------- 0 0.0 2.0 22 22
+ 0.6332 1 2 cbr 400 ------- 0 0.0 2.0 22 22
d 0.6332 1 2 cbr 400 ------- 0 0.0 2.0 22 22
+ 0.635 0 1 cbr 400 ------- 0 0.0 2.0 27 27
- 0.635 0 1 cbr 400 ------- 0 0.0 2.0 27 27
r 0.6382 0 1 cbr 400 ------- 0 0.0 2.0 23 23
+ 0.6382 1 2 cbr 400 ------- 0 0.0 2.0 23 23
d 0.6382 1 2 cbr 400 ------- 0 0.0 2.0 23 23
r 0.6392 1 2 cbr 400 ------- 0 0.0 2.0 2 2
+ 0.64 0 1 cbr 400 ------- 0 0.0 2.0 28 28
- 0.64 0 1 cbr 400 ------- 0 0.0 2.0 28 28
r 0.6432 0 1 cbr 400 ------- 0 0.0 2.0 24 24
+ 0.6432 1 2 cbr 400 ------- 0 0.0 2.0 24 24
d 0.6432 1 2 cbr 400 ------- 0 0.0 2.0 24 24
+ 0.645 0 1 cbr 400 ------- 0 0.0 2.0 29 29
- 0.645 0 1 cbr 400 ------- 0 0.0 2.0 29 29
r 0.6482 0 1 cbr 400 ------- 0 0.0 2.0 25 25
+ 0.6482 1 2 cbr 400 ------- 0 0.0 2.0 25 25
d 0.6482 1 2 cbr 400 ------- 0 0.0 2.0 25 25
+ 0.65 0 1 cbr 400 ------- 0 0.0 2.0 30 30
- 0.65 0 1 cbr 400 ------- 0 0.0 2.0 30 30
- 0.6512 1 2 cbr 400 ------- 0 0.0 2.0 4 4
r 0.6532 0 1 cbr 400 ------- 0 0.0 2.0 26 26
+ 0.6532 1 2 cbr 400 ------- 0 0.0 2.0 26 26
+ 0.655 0 1 cbr 400 ------- 0 0.0 2.0 31 31
- 0.655 0 1 cbr 400 ------- 0 0.0 2.0 31 31
r 0.6582 0 1 cbr 400 ------- 0 0.0 2.0 27 27
+ 0.6582 1 2 cbr 400 ------- 0 0.0 2.0 27 27
d 0.6582 1 2 cbr 400 ------- 0 0.0 2.0 27 27
+ 0.66 0 1 cbr 400 ------- 0 0.0 2.0 32 32
- 0.66 0 1 cbr 400 ------- 0 0.0 2.0 32 32
r 0.6632 0 1 cbr 400 ------- 0 0.0 2.0 28 28
+ 0.6632 1 2 cbr 400 ------- 0 0.0 2.0 28 28
d 0.6632 1 2 cbr 400 ------- 0 0.0 2.0 28 28
+ 0.665 0 1 cbr 400 ------- 0 0.0 2.0 33 33
- 0.665 0 1 cbr 400 ------- 0 0.0 2.0 33 33
r 0.6682 0 1 cbr 400 ------- 0 0.0 2.0 29 29
+ 0.6682 1 2 cbr 400 ------- 0 0.0 2.0 29 29
d 0.6682 1 2 cbr 400 ------- 0 0.0 2.0 29 29
+ 0.67 0 1 cbr 400 ------- 0 0.0 2.0 34 34
- 0.67 0 1 cbr 400 ------- 0 0.0 2.0 34 34
r 0.6712 1 2 cbr 400 ------- 0 0.0 2.0 3 3
r 0.6732 0 1 cbr 400 ------- 0 0.0 2.0 30 30
+ 0.6732 1 2 cbr 400 ------- 0 0.0 2.0 30 30
d 0.6732 1 2 cbr 400 ------- 0 0.0 2.0 30 30
+ 0.675 0 1 cbr 400 ------- 0 0.0 2.0 35 35
- 0.675 0 1 cbr 400 ------- 0 0.0 2.0 35 35
r 0.6782 0 1 cbr 400 ------- 0 0.0 2.0 31 31
+ 0.6782 1 2 cbr 400 ------- 0 0.0 2.0 31 31
d 0.6782 1 2 cbr 400 ------- 0 0.0 2.0 31 31
+ 0.68 0 1 cbr 400 ------- 0 0.0 2.0 36 36
- 0.68 0 1 cbr 400 ------- 0 0.0 2.0 36 36
- 0.6832 1 2 cbr 400 ------- 0 0.0 2.0 5 5
r 0.6832 0 1 cbr 400 ------- 0 0.0 2.0 32 32
+ 0.6832 1 2 cbr 400 ------- 0 0.0 2.0 32 32
+ 0.685 0 1 cbr 400 ------- 0 0.0 2.0 37 37
- 0.685 0 1 cbr 400 ------- 0 0.0 2.0 37 37
r 0.6882 0 1 cbr 400 ------- 0 0.0 2.0 33 33
+ 0.6882 1 2 cbr 400 ------- 0 0.0 2.0 33 33
d 0.6882 1 2 cbr 400 ------- 0 0.0 2.0 33 33
+ 0.69 0 1 cbr 400 ------- 0 0.0 2.0 38 38
- 0.69 0 1 cbr 400 ------- 0 0.0 2.0 38 38
r 0.6932 0 1 cbr 400 ------- 0 0.0 2.0 34 34
+ 0.6932 1 2 cbr 400 ------- 0 0.0 2.0 34 34
d 0.6932 1 2 cbr 400 ------- 0 0.0 2.0 34 34
+ 0.695 0 1 cbr 400 ------- 0 0.0 2.0 39 39
- 0.695 0 1 cbr 400 ------- 0 0.0 2.0 39 39
r 0.6982 0 1 cbr 400 ------- 0 0.0 2.0 35 35
+ 0.6982 1 2 cbr 400 ------- 0 0.0 2.0 35 35
d 0.6982 1 2 cbr 400 ------- 0 0.0 2.0 35 35
+ 0.7 0 1 cbr 400 ------- 0 0.0 2.0 40 40
- 0.7 0 1 cbr 400 ------- 0 0.0 2.0 40 40
r 0.7032 1 2 cbr 400 ------- 0 0.0 2.0 4 4
r 0.7032 0 1 cbr 400 ------- 0 0.0 2.0 36 36
+ 0.7032 1 2 cbr 400 ------- 0 0.0 2.0 36 36
d 0.7032 1 2 cbr 400 ------- 0 0.0 2.0 36 36
+ 0.705 0 1 cbr 400 ------- 0 0.0 2.0 41 41
- 0.705 0 1 cbr 400 ------- 0 0.0 2.0 41 41
r 0.7082 0 1 cbr 400 ------- 0 0.0 2.0 37 37
+ 0.7082 1 2 cbr 400 ------- 0 0.0 2.0 37 37
d 0.7082 1 2 cbr 400 ------- 0 0.0 2.0 37 37
+ 0.71 0 1 cbr 400 ------- 0 0.0 2.0 42 42
- 0.71 0 1 cbr 400 ------- 0 0.0 2.0 42 42
r 0.7132 0 1 cbr 400 ------- 0 0.0 2.0 38 38
+ 0.7132 1 2 cbr 400 ------- 0 0.0 2.0 38 38
d 0.7132 1 2 cbr 400 ------- 0 0.0 2.0 38 38
+ 0.715 0 1 cbr 400 ------- 0 0.0 2.0 43 43
- 0.715 0 1 cbr 400 ------- 0 0.0 2.0 43 43
- 0.7152 1 2 cbr 400 ------- 0 0.0 2.0 6 6
r 0.7182 0 1 cbr 400 ------- 0 0.0 2.0 39 39
+ 0.7182 1 2 cbr 400 ------- 0 0.0 2.0 39 39
+ 0.72 0 1 cbr 400 ------- 0 0.0 2.0 44 44
- 0.72 0 1 cbr 400 ------- 0 0.0 2.0 44 44
r 0.7232 0 1 cbr 400 ------- 0 0.0 2.0 40 40
+ 0.7232 1 2 cbr 400 ------- 0 0.0 2.0 40 40
d 0.7232 1 2 cbr 400 ------- 0 0.0 2.0 40 40
+ 0.725 0 1 cbr 400 ------- 0 0.0 2.0 45 45
- 0.725 0 1 cbr 400 ------- 0 0.0 2.0 45 45
r 0.7282 0 1 cbr 400 ------- 0 0.0 2.0 41 41
+ 0.7282 1 2 cbr 400 ------- 0 0.0 2.0 41 41
d 0.7282 1 2 cbr 400 ------- 0 0.0 2.0 41 41
+ 0.73 0 1 cbr 400 ------- 0 0.0 2.0 46 46
- 0.73 0 1 cbr 400 ------- 0 0.0 2.0 46 46
r 0.7332 0 1 cbr 400 ------- 0 0.0 2.0 42 42
+ 0.7332 1 2 cbr 400 ------- 0 0.0 2.0 42 42
d 0.7332 1 2 cbr 400 ------- 0 0.0 2.0 42 42
+ 0.735 0 1 cbr 400 ------- 0 0.0 2.0 47 47
- 0.735 0 1 cbr 400 ------- 0 0.0 2.0 47 47
r 0.7352 1 2 cbr 400 ------- 0 0.0 2.0 5 5
r 0.7382 0 1 cbr 400 ------- 0 0.0 2.0 43 43
+ 0.7382 1 2 cbr 400 ------- 0 0.0 2.0 43 43
d 0.7382 1 2 cbr 400 ------- 0 0.0 2.0 43 43
+ 0.74 0 1 cbr 400 ------- 0 0.0 2.0 48 48
- 0.74 0 1 cbr 400 ------- 0 0.0 2.0 48 48
r 0.7432 0 1 cbr 400 ------- 0 0.0 2.0 44 44
+ 0.7432 1 2 cbr 400 ------- 0 0.0 2.0 44 44
d 0.7432 1 2 cbr 400 ------- 0 0.0 2.0 44 44
+ 0.745 0 1 cbr 400 ------- 0 0.0 2.0 49 49
- 0.745 0 1 cbr 400 ------- 0 0.0 2.0 49 49
- 0.7472 1 2 cbr 400 ------- 0 0.0 2.0 7 7
r 0.7482 0 1 cbr 400 ------- 0 0.0 2.0 45 45
+ 0.7482 1 2 cbr 400 ------- 0 0.0 2.0 45 45
+ 0.75 0 1 cbr 400 ------- 0 0.0 2.0 50 50
- 0.75 0 1 cbr 400 ------- 0 0.0 2.0 50 50
r 0.7532 0 1 cbr 400 ------- 0 0.0 2.0 46 46
+ 0.7532 1 2 cbr 400 ------- 0 0.0 2.0 46 46
d 0.7532 1 2 cbr 400 ------- 0 0.0 2.0 46 46
+ 0.755 0 1 cbr 400 ------- 0 0.0 2.0 51 51
- 0.755 0 1 cbr 400 ------- 0 0.0 2.0 51 51
r 0.7582 0 1 cbr 400 ------- 0 0.0 2.0 47 47
+ 0.7582 1 2 cbr 400 ------- 0 0.0 2.0 47 47
d 0.7582 1 2 cbr 400 ------- 0 0.0 2.0 47 47
+ 0.76 0 1 cbr 400 ------- 0 0.0 2.0 52 52
- 0.76 0 1 cbr 400 ------- 0 0.0 2.0 52 52
r 0.7632 0 1 cbr 400 ------- 0 0.0 2.0 48 48
+ 0.7632 1 2 cbr 400 ------- 0 0.0 2.0 48 48
d 0.7632 1 2 cbr 400 ------- 0 0.0 2.0 48 48
+ 0.765 0 1 cbr 400 ------- 0 0.0 2.0 53 53
- 0.765 0 1 cbr 400 ------- 0 0.0 2.0 53 53
r 0.7672 1 2 cbr 400 ------- 0 0.0 2.0 6 6
r 0.7682 0 1 cbr 400 ------- 0 0.0 2.0 49 49
+ 0.7682 1 2 cbr 400 ------- 0 0.0 2.0 49 49
d 0.7682 1 2 cbr 400 ------- 0 0.0 2.0 49 49
+ 0.77 0 1 cbr 400 ------- 0 0.0 2.0 54 54
- 0.77 0 1 cbr 400 ------- 0 0.0 2.0 54 54
r 0.7732 0 1 cbr 400 ------- 0 0.0 2.0 50 50
+ 0.7732 1 2 cbr 400 ------- 0 0.0 2.0 50 50
d 0.7732 1 2 cbr 400 ------- 0 0.0 2.0 50 50
+ 0.775 0 1 cbr 400 ------- 0 0.0 2.0 55 55
- 0.775 0 1 cbr 400 ------- 0 0.0 2.0 55 55
r 0.7782 0 1 cbr 400 ------- 0 0.0 2.0 51 51
+ 0.7782 1 2 cbr 400 ------- 0 0.0 2.0 51 51
d 0.7782 1 2 cbr 400 ------- 0 0.0 2.0 51 51
- 0.7792 1 2 cbr 400 ------- 0 0.0 2.0 8 8
+ 0.78 0 1 cbr 400 ------- 0 0.0 2.0 56 56
- 0.78 0 1 cbr 400 ------- 0 0.0 2.0 56 56
r 0.7832 0 1 cbr 400 ------- 0 0.0 2.0 52 52
+ 0.7832 1 2 cbr 400 ------- 0 0.0 2.0 52 52
+ 0.785 0 1 cbr 400 ------- 0 0.0 2.0 57 57
- 0.785 0 1 cbr 400 ------- 0 0.0 2.0 57 57
r 0.7882 0 1 cbr 400 ------- 0 0.0 2.0 53 53
+ 0.7882 1 2 cbr 400 ------- 0 0.0 2.0 53 53
d 0.7882 1 2 cbr 400 ------- 0 0.0 2.0 53 53
+ 0.79 0 1 cbr 400 ------- 0 0.0 2.0 58 58
- 0.79 0 1 cbr 400 ------- 0 0.0 2.0 58 58
r 0.7932 0 1 cbr 400 ------- 0 0.0 2.0 54 54
+ 0.7932 1 2 cbr 400 ------- 0 0.0 2.0 54 54
d 0.7932 1 2 cbr 400 ------- 0 0.0 2.0 54 54
+ 0.795 0 1 cbr 400 ------- 0 0.0 2.0 59 59
- 0.795 0 1 cbr 400 ------- 0 0.0 2.0 59 59
r 0.7982 0 1 cbr 400 ------- 0 0.0 2.0 55 55
+ 0.7982 1 2 cbr 400 ------- 0 0.0 2.0 55 55
d 0.7982 1 2 cbr 400 ------- 0 0.0 2.0 55 55
r 0.7992 1 2 cbr 400 ------- 0 0.0 2.0 7 7
+ 0.8 0 1 cbr 400 ------- 0 0.0 2.0 60 60
- 0.8 0 1 cbr 400 ------- 0 0.0 2.0 60 60
r 0.8032 0 1 cbr 400 ------- 0 0.0 2.0 56 56
+ 0.8032 1 2 cbr 400 ------- 0 0.0 2.0 56 56
d 0.8032 1 2 cbr 400 ------- 0 0.0 2.0 56 56
+ 0.805 0 1 cbr 400 ------- 0 0.0 2.0 61 61
- 0.805 0 1 cbr 400 ------- 0 0.0 2.0 61 61
r 0.8082 0 1 cbr 400 ------- 0 0.0 2.0 57 57
+ 0.8082 1 2 cbr 400 ------- 0 0.0 2.0 57 57
d 0.8082 1 2 cbr 400 ------- 0 0.0 2.0 57 57
+ 0.81 0 1 cbr 400 ------- 0 0.0 2.0 62 62
- 0.81 0 1 cbr 400 ------- 0 0.0 2.0 62 62
- 0.8112 1 2 cbr 400 ------- 0 0.0 2.0 9 9
r 0.8132 0 1 cbr 400 ------- 0 0.0 2.0 58 58
+ 0.8132 1 2 cbr 400 ------- 0 0.0 2.0 58 58
+ 0.815 0 1 cbr 400 ------- 0 0.0 2.0 63 63
- 0.815 0 1 cbr 400 ------- 0 0.0 2.0 63 63
r 0.8182 0 1 cbr 400 ------- 0 0.0 2.0 59 59
+ 0.8182 1 2 cbr 400 ------- 0 0.0 2.0 59 59
d 0.8182 1 2 cbr 400 ------- 0 0.0 2.0 59 59
+ 0.82 0 1 cbr 400 ------- 0 0.0 2.0 64 64
- 0.82 0 1 cbr 400 ------- 0 0.0 2.0 64 64
r 0.8232 0 1 cbr 400 ------- 0 0.0 2.0 60 60
+ 0.8232 1 2 cbr 400 ------- 0 0.0 2.0 60 60
d 0.8232 1 2 cbr 400 ------- 0 0.0 2.0 60 60
+ 0.825 0 1 cbr 400 ------- 0 0.0 2.0 65 65
- 0.825 0 1 cbr 400 ------- 0 0.0 2.0 65 65
r 0.8282 0 1 cbr 400 ------- 0 0.0 2.0 61 61
+ 0.8282 1 2 cbr 400 ------- 0 0.0 2.0 61 61
d 0.8282 1 2 cbr 400 ------- 0 0.0 2.0 61 61
+ 0.83 0 1 cbr 400 ------- 0 0.0 2.0 66 66
- 0.83 0 1 cbr 400 ------- 0 0.0 2.0 66 66
r 0.8312 1 2 cbr 400 ------- 0 0.0 2.0 8 8
r 0.8332 0 1 cbr 400 ------- 0 0.0 2.0 62 62
+ 0.8332 1 2 cbr 400 ------- 0 0.0 2.0 62 62
d 0.8332 1 2 cbr 400 ------- 0 0.0 2.0 62 62
+ 0.835 0 1 cbr 400 ------- 0 0.0 2.0 67 67
- 0.835 0 1 cbr 400 ------- 0 0.0 2.0 67 67
r 0.8382 0 1 cbr 400 ------- 0 0.0 2.0 63 63
+ 0.8382 1 2 cbr 400 ------- 0 0.0 2.0 63 63
d 0.8382 1 2 cbr 400 ------- 0 0.0 2.0 63 63
+ 0.84 0 1 cbr 400 ------- 0 0.0 2.0 68 68
- 0.84 0 1 cbr 400 ------- 0 0.0 2.0 68 68
- 0.8432 1 2 cbr 400 ------- 0 0.0 2.0 10 10
r 0.8432 0 1 cbr 400 ------- 0 0.0 2.0 64 64
+ 0.8432 1 2 cbr 400 ------- 0 0.0 2.0 64 64
+ 0.845 0 1 cbr 400 ------- 0 0.0 2.0 69 69
- 0.845 0 1 cbr 400 ------- 0 0.0 2.0 69 69
r 0.8482 0 1 cbr 400 ------- 0 0.0 2.0 65 65
+ 0.8482 1 2 cbr 400 ------- 0 0.0 2.0 65 65
d 0.8482 1 2 cbr 400 ------- 0 0.0 2.0 65 65
+ 0.85 0 1 cbr 400 ------- 0 0.0 2.0 70 70
- 0.85 0 1 cbr 400 ------- 0 0.0 2.0 70 70
r 0.8532 0 1 cbr 400 ------- 0 0.0 2.0 66 66
+ 0.8532 1 2 cbr 400 ------- 0 0.0 2.0 66 66
d 0.8532 1 2 cbr 400 ------- 0 0.0 2.0 66 66
+ 0.855 0 1 cbr 400 ------- 0 0.0 2.0 71 71
- 0.855 0 1 cbr 400 ------- 0 0.0 2.0 71 71
r 0.8582 0 1 cbr 400 ------- 0 0.0 2.0 67 67
+ 0.8582 1 2 cbr 400 ------- 0 0.0 2.0 67 67
d 0.8582 1 2 cbr 400 ------- 0 0.0 2.0 67 67
+ 0.86 0 1 cbr 400 ------- 0 0.0 2.0 72 72
- 0.86 0 1 cbr 400 ------- 0 0.0 2.0 72 72
r 0.8632 1 2 cbr 400 ------- 0 0.0 2.0 9 9
r 0.8632 0 1 cbr 400 ------- 0 0.0 2.0 68 68
+ 0.8632 1 2 cbr 400 ------- 0 0.0 2.0 68 68
d 0.8632 1 2 cbr 400 ------- 0 0.0 2.0 68 68
+ 0.865 0 1 cbr 400 ------- 0 0.0 2.0 73 73
- 0.865 0 1 cbr 400 ------- 0 0.0 2.0 73 73
r 0.8682 0 1 cbr 400 ------- 0 0.0 2.0 69 69
+ 0.8682 1 2 cbr 400 ------- 0 0.0 2.0 69 69
d 0.8682 1 2 cbr 400 ------- 0 0.0 2.0 69 69
+ 0.87 0 1 cbr 400 ------- 0 0.0 2.0 74 74
- 0.87 0 1 cbr 400 ------- 0 0.0 2.0 74 74
r 0.8732 0 1 cbr 400 ------- 0 0.0 2.0 70 70
+ 0.8732 1 2 cbr 400 ------- 0 0.0 2.0 70 70
d 0.8732 1 2 cbr 400 ------- 0 0.0 2.0 70 70
+ 0.875 0 1 cbr 400 ------- 0 0.0 2.0 75 75
- 0.875 0 1 cbr 400 ------- 0 0.0 2.0 75 75
- 0.8752 1 2 cbr 400 ------- 0 0.0 2.0 13 13
r 0.8782 0 1 cbr 400 ------- 0 0.0 2.0 71 71
+ 0.8782 1 2 cbr 400 ------- 0 0.0 2.0 71 71
+ 0.88 0 1 cbr 400 ------- 0 0.0 2.0 76 76
- 0.88 0 1 cbr 400 ------- 0 0.0 2.0 76 76
r 0.8832 0 1 cbr 400 ------- 0 0.0 2.0 72 72
+ 0.8832 1 2 cbr 400 ------- 0 0.0 2.0 72 72
d 0.8832 1 2 cbr 400 ------- 0 0.0 2.0 72 72
+ 0.885 0 1 cbr 400 ------- 0 0.0 2.0 77 77
- 0.885 0 1 cbr 400 ------- 0 0.0 2.0 77 77
r 0.8882 0 1 cbr 400 ------- 0 0.0 2.0 73 73
+ 0.8882 1 2 cbr 400 ------- 0 0.0 2.0 73 73
d 0.8882 1 2 cbr 400 ------- 0 0.0 2.0 73 73
+ 0.89 0 1 cbr 400 ------- 0 0.0 2.0 78 78
- 0.89 0 1 cbr 400 ------- 0 0.0 2.0 78 78
r 0.8932 0 1 cbr 400 ------- 0 0.0 2.0 74 74
+ 0.8932 1 2 cbr 400 ------- 0 0.0 2.0 74 74
d 0.8932 1 2 cbr 400 ------- 0 0.0 2.0 74 74
+ 0.895 0 1 cbr 400 ------- 0 0.0 2.0 79 79
- 0.895 0 1 cbr 400 ------- 0 0.0 2.0 79 79
r 0.8952 1 2 cbr 400 ------- 0 0.0 2.0 10 10
r 0.8982 0 1 cbr 400 ------- 0 0.0 2.0 75 75
+ 0.8982 1 2 cbr 400 ------- 0 0.0 2.0 75 75
d 0.8982 1 2 cbr 400 ------- 0 0.0 2.0 75 75
+ 0.9 0 1 cbr 400 ------- 0 0.0 2.0 80 80
- 0.9 0 1 cbr 400 ------- 0 0.0 2.0 80 80
r 0.9032 0 1 cbr 400 ------- 0 0.0 2.0 76 76
+ 0.9032 1 2 cbr 400 ------- 0 0.0 2.0 76 76
d 0.9032 1 2 cbr 400 ------- 0 0.0 2.0 76 76
+ 0.905 0 1 cbr 400 ------- 0 0.0 2.0 81 81
- 0.905 0 1 cbr 400 ------- 0 0.0 2.0 81 81
- 0.9072 1 2 cbr 400 ------- 0 0.0 2.0 20 20
r 0.9082 0 1 cbr 400 ------- 0 0.0 2.0 77 77
+ 0.9082 1 2 cbr 400 ------- 0 0.0 2.0 77 77
+ 0.91 0 1 cbr 400 ------- 0 0.0 2.0 82 82
- 0.91 0 1 cbr 400 ------- 0 0.0 2.0 82 82
r 0.9132 0 1 cbr 400 ------- 0 0.0 2.0 78 78
+ 0.9132 1 2 cbr 400 ------- 0 0.0 2.0 78 78
d 0.9132 1 2 cbr 400 ------- 0 0.0 2.0 78 78
+ 0.915 0 1 cbr 400 ------- 0 0.0 2.0 83 83
- 0.915 0 1 cbr 400 ------- 0 0.0 2.0 83 83
r 0.9182 0 1 cbr 400 ------- 0 0.0 2.0 79 79
+ 0.9182 1 2 cbr 400 ------- 0 0.0 2.0 79 79
d 0.9182 1 2 cbr 400 ------- 0 0.0 2.0 79 79
+ 0.92 0 1 cbr 400 ------- 0 0.0 2.0 84 84
- 0.92 0 1 cbr 400 ------- 0 0.0 2.0 84 84
r 0.9232 0 1 cbr 400 ------- 0 0.0 2.0 80 80
+ 0.9232 1 2 cbr 400 ------- 0 0.0 2.0 80 80
d 0.9232 1 2 cbr 400 ------- 0 0.0 2.0 80 80
+ 0.925 0 1 cbr 400 ------- 0 0.0 2.0 85 85
- 0.925 0 1 cbr 400 ------- 0 0.0 2.0 85 85
r 0.9272 1 2 cbr 400 ------- 0 0.0 2.0 13 13
r 0.9282 0 1 cbr 400 ------- 0 0.0 2.0 81 81
+ 0.9282 1 2 cbr 400 ------- 0 0.0 2.0 81 81
d 0.9282 1 2 cbr 400 ------- 0 0.0 2.0 81 81
+ 0.93 0 1 cbr 400 ------- 0 0.0 2.0 86 86
- 0.93 0 1 cbr 400 ------- 0 0.0 2.0 86 86
r 0.9332 0 1 cbr 400 ------- 0 0.0 2.0 82 82
+ 0.9332 1 2 cbr 400 ------- 0 0.0 2.0 82 82
d 0.9332 1 2 cbr 400 ------- 0 0.0 2.0 82 82
+ 0.935 0 1 cbr 400 ------- 0 0.0 2.0 87 87
- 0.935 0 1 cbr 400 ------- 0 0.0 2.0 87 87
r 0.9382 0 1 cbr 400 ------- 0 0.0 2.0 83 83
+ 0.9382 1 2 cbr 400 ------- 0 0.0 2.0 83 83
d 0.9382 1 2 cbr 400 ------- 0 0.0 2.0 83 83
- 0.9392 1 2 cbr 400 ------- 0 0.0 2.0 26 26
+ 0.94 0 1 cbr 400 ------- 0 0.0 2.0 88 88
- 0.94 0 1 cbr 400 ------- 0 0.0 2.0 88 88
r 0.9432 0 1 cbr 400 ------- 0 0.0 2.0 84 84
+ 0.9432 1 2 cbr 400 ------- 0 0.0 2.0 84 84
+ 0.945 0 1 cbr 400 ------- 0 0.0 2.0 89 89
- 0.945 0 1 cbr 400 ------- 0 0.0 2.0 89 89
r 0.9482 0 1 cbr 400 ------- 0 0.0 2.0 85 85
+ 0.9482 1 2 cbr 400 ------- 0 0.0 2.0 85 85
d 0.9482 1 2 cbr 400 ------- 0 0.0 2.0 85 85
+ 0.95 0 1 cbr 400 ------- 0 0.0 2.0 90 90
- 0.95 0 1 cbr 400 ------- 0 0.0 2.0 90 90
r 0.9532 0 1 cbr 400 ------- 0 0.0 2.0 86 86
+ 0.9532 1 2 cbr 400 ------- 0 0.0 2.0 86 86
d 0.9532 1 2 cbr 400 ------- 0 0.0 2.0 86 86
+ 0.955 0 1 cbr 400 ------- 0 0.0 2.0 91 91
- 0.955 0 1 cbr 400 ------- 0 0.0 2.0 91 91
r 0.9582 0 1 cbr 400 ------- 0 0.0 2.0 87 87
+ 0.9582 1 2 cbr 400 ------- 0 0.0 2.0 87 87
d 0.9582 1 2 cbr 400 ------- 0 0.0 2.0 87 87
r 0.9592 1 2 cbr 400 ------- 0 0.0 2.0 20 20
+ 0.96 0 1 cbr 400 ------- 0 0.0 2.0 92 92
- 0.96 0 1 cbr 400 ------- 0 0.0 2.0 92 92
r 0.9632 0 1 cbr 400 ------- 0 0.0 2.0 88 88
+ 0.9632 1 2 cbr 400 ------- 0 0.0 2.0 88 88
d 0.9632 1 2 cbr 400 ------- 0 0.0 2.0 88 88
+ 0.965 0 1 cbr 400 ------- 0 0.0 2.0 93 93
- 0.965 0 1 cbr 400 ------- 0 0.0 2.0 93 93
r 0.9682 0 1 cbr 400 ------- 0 0.0 2.0 89 89
+ 0.9682 1 2 cbr 400 ------- 0 0.0 2.0 89 89
d 0.9682 1 2 cbr 400 ------- 0 0.0 2.0 89 89
+ 0.97 0 1 cbr 400 ------- 0 0.0 2.0 94 94
- 0.97 0 1 cbr 400 ------- 0 0.0 2.0 94 94
- 0.9712 1 2 cbr 400 ------- 0 0.0 2.0 32 32
r 0.9732 0 1 cbr 400 ------- 0 0.0 2.0 90 90
+ 0.9732 1 2 cbr 400 ------- 0 0.0 2.0 90 90
+ 0.975 0 1 cbr 400 ------- 0 0.0 2.0 95 95
- 0.975 0 1 cbr 400 ------- 0 0.0 2.0 95 95
r 0.9782 0 1 cbr 400 ------- 0 0.0 2.0 91 91
+ 0.9782 1 2 cbr 400 ------- 0 0.0 2.0 91 91
d 0.9782 1 2 cbr 400 ------- 0 0.0 2.0 91 91
+ 0.98 0 1 cbr 400 ------- 0 0.0 2.0 96 96
- 0.98 0 1 cbr 400 ------- 0 0.0 2.0 96 96
r 0.9832 0 1 cbr 400 ------- 0 0.0 2.0 92 92
+ 0.9832 1 2 cbr 400 ------- 0 0.0 2.0 92 92
d 0.9832 1 2 cbr 400 ------- 0 0.0 2.0 92 92
+ 0.985 0 1 cbr 400 ------- 0 0.0 2.0 97 97
- 0.985 0 1 cbr 400 ------- 0 0.0 2.0 97 97
r 0.9882 0 1 cbr 400 ------- 0 0.0 2.0 93 93
+ 0.9882 1 2 cbr 400 ------- 0 0.0 2.0 93 93
d 0.9882 1 2 cbr 400 ------- 0 0.0 2.0 93 93
+ 0.99 0 1 cbr 400 ------- 0 0.0 2.0 98 98
- 0.99 0 1 cbr 400 ------- 0 0.0 2.0 98 98
r 0.9912 1 2 cbr 400 ------- 0 0.0 2.0 26 26
r 0.9932 0 1 cbr 400 ------- 0 0.0 2.0 94 94
+ 0.9932 1 2 cbr 400 ------- 0 0.0 2.0 94 94
d 0.9932 1 2 cbr 400 ------- 0 0.0 2.0 94 94
+ 0.995 0 1 cbr 400 ------- 0 0.0 2.0 99 99
- 0.995 0 1 cbr 400 ------- 0 0.0 2.0 99 99
r 0.9982 0 1 cbr 400 ------- 0 0.0 2.0 95 95
+ 0.9982 1 2 cbr 400 ------- 0 0.0 2.0 95 95
d 0.9982 1 2 cbr 400 ------- 0 0.0 2.0 95 95
+ 1 0 1 cbr 400 ------- 0 0.0 2.0 100 100
- 1 0 1 cbr 400 ------- 0 0.0 2.0 100 100
- 1.0032 1 2 cbr 400 ------- 0 0.0 2.0 39 39
r 1.0032 0 1 cbr 400 ------- 0 0.0 2.0 96 96
+ 1.0032 1 2 cbr 400 ------- 0 0.0 2.0 96 96
+ 1.005 0 1 cbr 400 ------- 0 0.0 2.0 101 101
- 1.005 0 1 cbr 400 ------- 0 0.0 2.0 101 101
r 1.0082 0 1 cbr 400 ------- 0 0.0 2.0 97 97
+ 1.0082 1 2 cbr 400 ------- 0 0.0 2.0 97 97
d 1.0082 1 2 cbr 400 ------- 0 0.0 2.0 97 97
+ 1.01 0 1 cbr 400 ------- 0 0.0 2.0 102 102
- 1.01 0 1 cbr 400 ------- 0 0.0 2.0 102 102
r 1.0132 0 1 cbr 400 ------- 0 0.0 2.0 98 98
+ 1.0132 1 2 cbr 400 ------- 0 0.0 2.0 98 98
d 1.0132 1 2 cbr 400 ------- 0 0.0 2.0 98 98
+ 1.015 0 1 cbr 400 ------- 0 0.0 2.0 103 103
- 1.015 0 1 cbr 400 ------- 0 0.0 2.0 103 103
r 1.0182 0 1 cbr 400 ------- 0 0.0 2.0 99 99
+ 1.0182 1 2 cbr 400 ------- 0 0.0 2.0 99 99
d 1.0182 1 2 cbr 400 ------- 0 0.0 2.0 99 99
+ 1.02 0 1 cbr 400 ------- 0 0.0 2.0 104 104
- 1.02 0 1 cbr 400 ------- 0 0.0 2.0 104 104
r 1.0232 1 2 cbr 400 ------- 0 0.0 2.0 32 32
r 1.0232 0 1 cbr 400 ------- 0 0.0 2.0 100 100
+ 1.0232 1 2 cbr 400 ------- 0 0.0 2.0 100 100
d 1.0232 1 2 cbr 400 ------- 0 0.0 2.0 100 100
+ 1.025 0 1 cbr 400 ------- 0 0.0 2.0 105 105
- 1.025 0 1 cbr 400 ------- 0 0.0 2.0 105 105
r 1.0282 0 1 cbr 400 ------- 0 0.0 2.0 101 101
+ 1.0282 1 2 cbr 400 ------- 0 0.0 2.0 101 101
d 1.0282 1 2 cbr 400 ------- 0 0.0 2.0 101 101
+ 1.03 0 1 cbr 400 ------- 0 0.0 2.0 106 106
- 1.03 0 1 cbr 400 ------- 0 0.0 2.0 106 106
r 1.0332 0 1 cbr 400 ------- 0 0.0 2.0 102 102
+ 1.0332 1 2 cbr 400 ------- 0 0.0 2.0 102 102
d 1.0332 1 2 cbr 400 ------- 0 0.0 2.0 102 102
+ 1.035 0 1 cbr 400 ------- 0 0.0 2.0 107 107
- 1.035 0 1 cbr 400 ------- 0 0.0 2.0 107 107
- 1.0352 1 2 cbr 400 ------- 0 0.0 2.0 45 45
r 1.0382 0 1 cbr 400 ------- 0 0.0 2.0 103 103
+ 1.0382 1 2 cbr 400 ------- 0 0.0 2.0 103 103
+ 1.04 0 1 cbr 400 ------- 0 0.0 2.0 108 108
- 1.04 0 1 cbr 400 ------- 0 0.0 2.0 108 108
r 1.0432 0 1 cbr 400 ------- 0 0.0 2.0 104 104
+ 1.0432 1 2 cbr 400 ------- 0 0.0 2.0 104 104
d 1.0432 1 2 cbr 400 ------- 0 0.0 2.0 104 104
+ 1.045 0 1 cbr 400 ------- 0 0.0 2.0 109 109
- 1.045 0 1 cbr 400 ------- 0 0.0 2.0 109 109
r 1.0482 0 1 cbr 400 ------- 0 0.0 2.0 105 105
+ 1.0482 1 2 cbr 400 ------- 0 0.0 2.0 105 105
d 1.0482 1 2 cbr 400 ------- 0 0.0 2.0 105 105
+ 1.05 0 1 cbr 400 ------- 0 0.0 2.0 110 110
- 1.05 0 1 cbr 400 ------- 0 0.0 2.0 110 110
r 1.0532 0 1 cbr 400 ------- 0 0.0 2.0 106 106
+ 1.0532 1 2 cbr 400 ------- 0 0.0 2.0 106 106
d 1.0532 1 2 cbr 400 ------- 0 0.0 2.0 106 106
+ 1.055 0 1 cbr 400 ------- 0 0.0 2.0 111 111
- 1.055 0 1 cbr 400 ------- 0 0.0 2.0 111 111
r 1.0552 1 2 cbr 400 ------- 0 0.0 2.0 39 39
r 1.0582 0 1 cbr 400 ------- 0 0.0 2.0 107 107
+ 1.0582 1 2 cbr 400 ------- 0 0.0 2.0 107 107
d 1.0582 1 2 cbr 400 ------- 0 0.0 2.0 107 107
+ 1.06 0 1 cbr 400 ------- 0 0.0 2.0 112 112
- 1.06 0 1 cbr 400 ------- 0 0.0 2.0 112 112
r 1.0632 0 1 cbr 400 ------- 0 0.0 2.0 108 108
+ 1.0632 1 2 cbr 400 ------- 0 0.0 2.0 108 108
d 1.0632 1 2 cbr 400 ------- 0 0.0 2.0 108 108
+ 1.065 0 1 cbr 400 ------- 0 0.0 2.0 113 113
- 1.065 0 1 cbr 400 ------- 0 0.0 2.0 113 113
- 1.0672 1 2 cbr 400 ------- 0 0.0 2.0 52 52
r 1.0682 0 1 cbr 400 ------- 0 0.0 2.0 109 109
+ 1.0682 1 2 cbr 400 ------- 0 0.0 2.0 109 109
+ 1.07 0 1 cbr 400 ------- 0 0.0 2.0 114 114
- 1.07 0 1 cbr 400 ------- 0 0.0 2.0 114 114
r 1.0732 0 1 cbr 400 ------- 0 0.0 2.0 110 110
+ 1.0732 1 2 cbr 400 ------- 0 0.0 2.0 110 110
d 1.0732 1 2 cbr 400 ------- 0 0.0 2.0 110 110
+ 1.075 0 1 cbr 400 ------- 0 0.0 2.0 115 115
- 1.075 0 1 cbr 400 ------- 0 0.0 2.0 115 115
r 1.0782 0 1 cbr 400 ------- 0 0.0 2.0 111 111
+ 1.0782 1 2 cbr 400 ------- 0 0.0 2.0 111 111
d 1.0782 1 2 cbr 400 ------- 0 0.0 2.0 111 111
+ 1.08 0 1 cbr 400 ------- 0 0.0 2.0 116 116
- 1.08 0 1 cbr 400 ------- 0 0.0 2.0 116 116
r 1.0832 0 1 cbr 400 ------- 0 0.0 2.0 112 112
+ 1.0832 1 2 cbr 400 ------- 0 0.0 2.0 112 112
d 1.0832 1 2 cbr 400 ------- 0 0.0 2.0 112 112
+ 1.085 0 1 cbr 400 ------- 0 0.0 2.0 117 117
- 1.085 0 1 cbr 400 ------- 0 0.0 2.0 117 117
r 1.0872 1 2 cbr 400 ------- 0 0.0 2.0 45 45
r 1.0882 0 1 cbr 400 ------- 0 0.0 2.0 113 113
+ 1.0882 1 2 cbr 400 ------- 0 0.0 2.0 113 113
d 1.0882 1 2 cbr 400 ------- 0 0.0 2.0 113 113
+ 1.09 0 1 cbr 400 ------- 0 0.0 2.0 118 118
- 1.09 0 1 cbr 400 ------- 0 0.0 2.0 118 118
r 1.0932 0 1 cbr 400 ------- 0 0.0 2.0 114 114
+ 1.0932 1 2 cbr 400 ------- 0 0.0 2.0 114 114
d 1.0932 1 2 cbr 400 ------- 0 0.0 2.0 114 114
+ 1.095 0 1 cbr 400 ------- 0 0.0 2.0 119 119
- 1.095 0 1 cbr 400 ------- 0 0.0 2.0 119 119
r 1.0982 0 1 cbr 400 ------- 0 0.0 2.0 115 115
+ 1.0982 1 2 cbr 400 ------- 0 0.0 2.0 115 115
d 1.0982 1 2 cbr 400 ------- 0 0.0 2.0 115 115
- 1.0992 1 2 cbr 400 ------- 0 0.0 2.0 58 58
+ 1.1 0 1 cbr 400 ------- 0 0.0 2.0 120 120
- 1.1 0 1 cbr 400 ------- 0 0.0 2.0 120 120
r 1.1032 0 1 cbr 400 ------- 0 0.0 2.0 116 116
+ 1.1032 1 2 cbr 400 ------- 0 0.0 2.0 116 116
+ 1.105 0 1 cbr 400 ------- 0 0.0 2.0 121 121
- 1.105 0 1 cbr 400 ------- 0 0.0 2.0 121 121
r 1.1082 0 1 cbr 400 ------- 0 0.0 2.0 117 117
+ 1.1082 1 2 cbr 400 ------- 0 0.0 2.0 117 117
d 1.1082 1 2 cbr 400 ------- 0 0.0 2.0 117 117
+ 1.11 0 1 cbr 400 ------- 0 0.0 2.0 122 122
- 1.11 0 1 cbr 400 ------- 0 0.0 2.0 122 122
r 1.1132 0 1 cbr 400 ------- 0 0.0 2.0 118 118
+ 1.1132 1 2 cbr 400 ------- 0 0.0 2.0 118 118
d 1.1132 1 2 cbr 400 ------- 0 0.0 2.0 118 118
+ 1.115 0 1 cbr 400 ------- 0 0.0 2.0 123 123
- 1.115 0 1 cbr 400 ------- 0 0.0 2.0 123 123
r 1.1182 0 1 cbr 400 ------- 0 0.0 2.0 119 119
+ 1.1182 1 2 cbr 400 ------- 0 0.0 2.0 119 119
d 1.1182 1 2 cbr 400 ------- 0 0.0 2.0 119 119
r 1.1192 1 2 cbr 400 ------- 0 0.0 2.0 52 52
+ 1.12 0 1 cbr 400 ------- 0 0.0 2.0 124 124
- 1.12 0 1 cbr 400 ------- 0 0.0 2.0 124 124
r 1.1232 0 1 cbr 400 ------- 0 0.0 2.0 120 120
+ 1.1232 1 2 cbr 400 ------- 0 0.0 2.0 120 120
d 1.1232 1 2 cbr 400 ------- 0 0.0 2.0 120 120
+ 1.125 0 1 cbr 400 ------- 0 0.0 2.0 125 125
- 1.125 0 1 cbr 400 ------- 0 0.0 2.0 125 125
r 1.1282 0 1 cbr 400 ------- 0 0.0 2.0 121 121
+ 1.1282 1 2 cbr 400 ------- 0 0.0 2.0 121 121
d 1.1282 1 2 cbr 400 ------- 0 0.0 2.0 121 121
+ 1.13 0 1 cbr 400 ------- 0 0.0 2.0 126 126
- 1.13 0 1 cbr 400 ------- 0 0.0 2.0 126 126
- 1.1312 1 2 cbr 400 ------- 0 0.0 2.0 64 64
r 1.1332 0 1 cbr 400 ------- 0 0.0 2.0 122 122
+ 1.1332 1 2 cbr 400 ------- 0 0.0 2.0 122 122
+ 1.135 0 1 cbr 400 ------- 0 0.0 2.0 127 127
- 1.135 0 1 cbr 400 ------- 0 0.0 2.0 127 127
r 1.1382 0 1 cbr 400 ------- 0 0.0 2.0 123 123
+ 1.1382 1 2 cbr 400 ------- 0 0.0 2.0 123 123
d 1.1382 1 2 cbr 400 ------- 0 0.0 2.0 123 123
+ 1.14 0 1 cbr 400 ------- 0 0.0 2.0 128 128
- 1.14 0 1 cbr 400 ------- 0 0.0 2.0 128 128
r 1.1432 0 1 cbr 400 ------- 0 0.0 2.0 124 124
+ 1.1432 1 2 cbr 400 ------- 0 0.0 2.0 124 124
d 1.1432 1 2 cbr 400 ------- 0 0.0 2.0 124 124
+ 1.145 0 1 cbr 400 ------- 0 0.0 2.0 129 129
- 1.145 0 1 cbr 400 ------- 0 0.0 2.0 129 129
r 1.1482 0 1 cbr 400 ------- 0 0.0 2.0 125 125
+ 1.1482 1 2 cbr 400 ------- 0 0.0 2.0 125 125
d 1.1482 1 2 cbr 400 ------- 0 0.0 2.0 125 125
+ 1.15 0 1 cbr 400 ------- 0 0.0 2.0 130 130
- 1.15 0 1 cbr 400 ------- 0 0.0 2.0 130 130
r 1.1512 1 2 cbr 400 ------- 0 0.0 2.0 58 58
r 1.1532 0 1 cbr 400 ------- 0 0.0 2.0 126 126
+ 1.1532 1 2 cbr 400 ------- 0 0.0 2.0 126 126
d 1.1532 1 2 cbr 400 ------- 0 0.0 2.0 126 126
+ 1.155 0 1 cbr 400 ------- 0 0.0 2.0 131 131
- 1.155 0 1 cbr 400 ------- 0 0.0 2.0 131 131
r 1.1582 0 1 cbr 400 ------- 0 0.0 2.0 127 127
+ 1.1582 1 2 cbr 400 ------- 0 0.0 2.0 127 127
d 1.1582 1 2 cbr 400 ------- 0 0.0 2.0 127 127
+ 1.16 0 1 cbr 400 ------- 0 0.0 2.0 132 132
- 1.16 0 1 cbr 400 ------- 0 0.0 2.0 132 132
r 1.1632 0 1 cbr 400 ------- 0 0.0 2.0 128 128
+ 1.1632 1 2 cbr 400 ------- 0 0.0 2.0 128 128
d 1.1632 1 2 cbr 400 ------- 0 0.0 2.0 128 128
- 1.1632 1 2 cbr 400 ------- 0 0.0 2.0 71 71
+ 1.165 0 1 cbr 400 ------- 0 0.0 2.0 133 133
- 1.165 0 1 cbr 400 ------- 0 0.0 2.0 133 133
r 1.1682 0 1 cbr 400 ------- 0 0.0 2.0 129 129
+ 1.1682 1 2 cbr 400 ------- 0 0.0 2.0 129 129
+ 1.17 0 1 cbr 400 ------- 0 0.0 2.0 134 134
- 1.17 0 1 cbr 400 ------- 0 0.0 2.0 134 134
r 1.1732 0 1 cbr 400 ------- 0 0.0 2.0 130 130