+ 0.5 0 2 tcp 40 ------- 0 0.0 3.0 0 0
- 0.5 0 2 tcp 40 ------- 0 0.0 3.0 0 0
r 0.51016 0 2 tcp 40 ------- 0 0.0 3.0 0 0
+ 0.51016 2 3 tcp 40 ------- 0 0.0 3.0 0 0
- 0.51016 2 3 tcp 40 ------- 0 0.0 3.0 0 0
r 0.520427 2 3 tcp 40 ------- 0 0.0 3.0 0 0
+ 0.520427 3 2 ack 40 ------- 0 3.0 0.0 0 1
- 0.520427 3 2 ack 40 ------- 0 3.0 0.0 0 1
r 0.530693 3 2 ack 40 ------- 0 3.0 0.0 0 1
+ 0.530693 2 0 ack 40 ------- 0 3.0 0.0 0 1
- 0.530693 2 0 ack 40 ------- 0 3.0 0.0 0 1
r 0.540853 2 0 ack 40 ------- 0 3.0 0.0 0 1
+ 0.540853 0 2 tcp 1040 ------- 0 0.0 3.0 1 2
- 0.540853 0 2 tcp 1040 ------- 0 0.0 3.0 1 2
+ 0.540853 0 2 tcp 1040 ------- 0 0.0 3.0 2 3
- 0.545013 0 2 tcp 1040 ------- 0 0.0 3.0 2 3
r 0.555013 0 2 tcp 1040 ------- 0 0.0 3.0 1 2
+ 0.555013 2 3 tcp 1040 ------- 0 0.0 3.0 1 2
- 0.555013 2 3 tcp 1040 ------- 0 0.0 3.0 1 2
r 0.559173 0 2 tcp 1040 ------- 0 0.0 3.0 2 3
+ 0.559173 2 3 tcp 1040 ------- 0 0.0 3.0 2 3
- 0.561947 2 3 tcp 1040 ------- 0 0.0 3.0 2 3
r 0.571947 2 3 tcp 1040 ------- 0 0.0 3.0 1 2
+ 0.571947 3 2 ack 40 ------- 0 3.0 0.0 1 4
- 0.571947 3 2 ack 40 ------- 0 3.0 0.0 1 4
r 0.57888 2 3 tcp 1040 ------- 0 0.0 3.0 2 3
+ 0.57888 3 2 ack 40 ------- 0 3.0 0.0 2 5
- 0.57888 3 2 ack 40 ------- 0 3.0 0.0 2 5
r 0.582213 3 2 ack 40 ------- 0 3.0 0.0 1 4
+ 0.582213 2 0 ack 40 ------- 0 3.0 0.0 1 4
- 0.582213 2 0 ack 40 ------- 0 3.0 0.0 1 4
r 0.589147 3 2 ack 40 ------- 0 3.0 0.0 2 5
+ 0.589147 2 0 ack 40 ------- 0 3.0 0.0 2 5
- 0.589147 2 0 ack 40 ------- 0 3.0 0.0 2 5
r 0.592373 2 0 ack 40 ------- 0 3.0 0.0 1 4
+ 0.592373 0 2 tcp 1040 ------- 0 0.0 3.0 3 6
- 0.592373 0 2 tcp 1040 ------- 0 0.0 3.0 3 6
+ 0.592373 0 2 tcp 1040 ------- 0 0.0 3.0 4 7
- 0.596533 0 2 tcp 1040 ------- 0 0.0 3.0 4 7
r 0.599307 2 0 ack 40 ------- 0 3.0 0.0 2 5
+ 0.599307 0 2 tcp 1040 ------- 0 0.0 3.0 5 8
+ 0.599307 0 2 tcp 1040 ------- 0 0.0 3.0 6 9
- 0.600693 0 2 tcp 1040 ------- 0 0.0 3.0 5 8
- 0.604853 0 2 tcp 1040 ------- 0 0.0 3.0 6 9
r 0.606533 0 2 tcp 1040 ------- 0 0.0 3.0 3 6
+ 0.606533 2 3 tcp 1040 ------- 0 0.0 3.0 3 6
- 0.606533 2 3 tcp 1040 ------- 0 0.0 3.0 3 6
r 0.610693 0 2 tcp 1040 ------- 0 0.0 3.0 4 7
+ 0.610693 2 3 tcp 1040 ------- 0 0.0 3.0 4 7
- 0.613467 2 3 tcp 1040 ------- 0 0.0 3.0 4 7
r 0.614853 0 2 tcp 1040 ------- 0 0.0 3.0 5 8
+ 0.614853 2 3 tcp 1040 ------- 0 0.0 3.0 5 8
r 0.619013 0 2 tcp 1040 ------- 0 0.0 3.0 6 9
+ 0.619013 2 3 tcp 1040 ------- 0 0.0 3.0 6 9
- 0.6204 2 3 tcp 1040 ------- 0 0.0 3.0 5 8
r 0.623467 2 3 tcp 1040 ------- 0 0.0 3.0 3 6
+ 0.623467 3 2 ack 40 ------- 0 3.0 0.0 3 10
- 0.623467 3 2 ack 40 ------- 0 3.0 0.0 3 10
- 0.627333 2 3 tcp 1040 ------- 0 0.0 3.0 6 9
r 0.6304 2 3 tcp 1040 ------- 0 0.0 3.0 4 7
+ 0.6304 3 2 ack 40 ------- 0 3.0 0.0 4 11
- 0.6304 3 2 ack 40 ------- 0 3.0 0.0 4 11
r 0.633733 3 2 ack 40 ------- 0 3.0 0.0 3 10
+ 0.633733 2 0 ack 40 ------- 0 3.0 0.0 3 10
- 0.633733 2 0 ack 40 ------- 0 3.0 0.0 3 10
r 0.637333 2 3 tcp 1040 ------- 0 0.0 3.0 5 8
+ 0.637333 3 2 ack 40 ------- 0 3.0 0.0 5 12
- 0.637333 3 2 ack 40 ------- 0 3.0 0.0 5 12
r 0.640667 3 2 ack 40 ------- 0 3.0 0.0 4 11
+ 0.640667 2 0 ack 40 ------- 0 3.0 0.0 4 11
- 0.640667 2 0 ack 40 ------- 0 3.0 0.0 4 11
r 0.643893 2 0 ack 40 ------- 0 3.0 0.0 3 10
+ 0.643893 0 2 tcp 1040 ------- 0 0.0 3.0 7 13
- 0.643893 0 2 tcp 1040 ------- 0 0.0 3.0 7 13
+ 0.643893 0 2 tcp 1040 ------- 0 0.0 3.0 8 14
r 0.644267 2 3 tcp 1040 ------- 0 0.0 3.0 6 9
+ 0.644267 3 2 ack 40 ------- 0 3.0 0.0 6 15
- 0.644267 3 2 ack 40 ------- 0 3.0 0.0 6 15
r 0.6476 3 2 ack 40 ------- 0 3.0 0.0 5 12
+ 0.6476 2 0 ack 40 ------- 0 3.0 0.0 5 12
- 0.6476 2 0 ack 40 ------- 0 3.0 0.0 5 12
- 0.648053 0 2 tcp 1040 ------- 0 0.0 3.0 8 14
r 0.650827 2 0 ack 40 ------- 0 3.0 0.0 4 11
+ 0.650827 0 2 tcp 1040 ------- 0 0.0 3.0 9 16
+ 0.650827 0 2 tcp 1040 ------- 0 0.0 3.0 10 17
- 0.652213 0 2 tcp 1040 ------- 0 0.0 3.0 9 16
r 0.654533 3 2 ack 40 ------- 0 3.0 0.0 6 15
+ 0.654533 2 0 ack 40 ------- 0 3.0 0.0 6 15
- 0.654533 2 0 ack 40 ------- 0 3.0 0.0 6 15
- 0.656373 0 2 tcp 1040 ------- 0 0.0 3.0 10 17
r 0.65776 2 0 ack 40 ------- 0 3.0 0.0 5 12
+ 0.65776 0 2 tcp 1040 ------- 0 0.0 3.0 11 18
+ 0.65776 0 2 tcp 1040 ------- 0 0.0 3.0 12 19
r 0.658053 0 2 tcp 1040 ------- 0 0.0 3.0 7 13
+ 0.658053 2 3 tcp 1040 ------- 0 0.0 3.0 7 13
- 0.658053 2 3 tcp 1040 ------- 0 0.0 3.0 7 13
- 0.660533 0 2 tcp 1040 ------- 0 0.0 3.0 11 18
r 0.662213 0 2 tcp 1040 ------- 0 0.0 3.0 8 14
+ 0.662213 2 3 tcp 1040 ------- 0 0.0 3.0 8 14
r 0.664693 2 0 ack 40 ------- 0 3.0 0.0 6 15
+ 0.664693 0 2 tcp 1040 ------- 0 0.0 3.0 13 20
+ 0.664693 0 2 tcp 1040 ------- 0 0.0 3.0 14 21
- 0.664693 0 2 tcp 1040 ------- 0 0.0 3.0 12 19
- 0.664987 2 3 tcp 1040 ------- 0 0.0 3.0 8 14
r 0.666373 0 2 tcp 1040 ------- 0 0.0 3.0 9 16
+ 0.666373 2 3 tcp 1040 ------- 0 0.0 3.0 9 16
- 0.668853 0 2 tcp 1040 ------- 0 0.0 3.0 13 20
r 0.670533 0 2 tcp 1040 ------- 0 0.0 3.0 10 17
+ 0.670533 2 3 tcp 1040 ------- 0 0.0 3.0 10 17
- 0.67192 2 3 tcp 1040 ------- 0 0.0 3.0 9 16
- 0.673013 0 2 tcp 1040 ------- 0 0.0 3.0 14 21
r 0.674693 0 2 tcp 1040 ------- 0 0.0 3.0 11 18
+ 0.674693 2 3 tcp 1040 ------- 0 0.0 3.0 11 18
r 0.674987 2 3 tcp 1040 ------- 0 0.0 3.0 7 13
+ 0.674987 3 2 ack 40 ------- 0 3.0 0.0 7 22
- 0.674987 3 2 ack 40 ------- 0 3.0 0.0 7 22
- 0.678853 2 3 tcp 1040 ------- 0 0.0 3.0 10 17
r 0.678853 0 2 tcp 1040 ------- 0 0.0 3.0 12 19
+ 0.678853 2 3 tcp 1040 ------- 0 0.0 3.0 12 19
r 0.68192 2 3 tcp 1040 ------- 0 0.0 3.0 8 14
+ 0.68192 3 2 ack 40 ------- 0 3.0 0.0 8 23
- 0.68192 3 2 ack 40 ------- 0 3.0 0.0 8 23
r 0.683013 0 2 tcp 1040 ------- 0 0.0 3.0 13 20
+ 0.683013 2 3 tcp 1040 ------- 0 0.0 3.0 13 20
r 0.685253 3 2 ack 40 ------- 0 3.0 0.0 7 22
+ 0.685253 2 0 ack 40 ------- 0 3.0 0.0 7 22
- 0.685253 2 0 ack 40 ------- 0 3.0 0.0 7 22
- 0.685787 2 3 tcp 1040 ------- 0 0.0 3.0 11 18
r 0.687173 0 2 tcp 1040 ------- 0 0.0 3.0 14 21
+ 0.687173 2 3 tcp 1040 ------- 0 0.0 3.0 14 21
r 0.688853 2 3 tcp 1040 ------- 0 0.0 3.0 9 16
+ 0.688853 3 2 ack 40 ------- 0 3.0 0.0 9 24
- 0.688853 3 2 ack 40 ------- 0 3.0 0.0 9 24
r 0.692187 3 2 ack 40 ------- 0 3.0 0.0 8 23
+ 0.692187 2 0 ack 40 ------- 0 3.0 0.0 8 23
- 0.692187 2 0 ack 40 ------- 0 3.0 0.0 8 23
- 0.69272 2 3 tcp 1040 ------- 0 0.0 3.0 12 19
r 0.695413 2 0 ack 40 ------- 0 3.0 0.0 7 22
+ 0.695413 0 2 tcp 1040 ------- 0 0.0 3.0 15 25
- 0.695413 0 2 tcp 1040 ------- 0 0.0 3.0 15 25
+ 0.695413 0 2 tcp 1040 ------- 0 0.0 3.0 16 26
r 0.695787 2 3 tcp 1040 ------- 0 0.0 3.0 10 17
+ 0.695787 3 2 ack 40 ------- 0 3.0 0.0 10 27
- 0.695787 3 2 ack 40 ------- 0 3.0 0.0 10 27
r 0.69912 3 2 ack 40 ------- 0 3.0 0.0 9 24
+ 0.69912 2 0 ack 40 ------- 0 3.0 0.0 9 24
- 0.69912 2 0 ack 40 ------- 0 3.0 0.0 9 24
- 0.699573 0 2 tcp 1040 ------- 0 0.0 3.0 16 26
- 0.699653 2 3 tcp 1040 ------- 0 0.0 3.0 13 20
r 0.702347 2 0 ack 40 ------- 0 3.0 0.0 8 23
+ 0.702347 0 2 tcp 1040 ------- 0 0.0 3.0 17 28
+ 0.702347 0 2 tcp 1040 ------- 0 0.0 3.0 18 29
r 0.70272 2 3 tcp 1040 ------- 0 0.0 3.0 11 18
+ 0.70272 3 2 ack 40 ------- 0 3.0 0.0 11 30
- 0.70272 3 2 ack 40 ------- 0 3.0 0.0 11 30
- 0.703733 0 2 tcp 1040 ------- 0 0.0 3.0 17 28
r 0.706053 3 2 ack 40 ------- 0 3.0 0.0 10 27
+ 0.706053 2 0 ack 40 ------- 0 3.0 0.0 10 27
- 0.706053 2 0 ack 40 ------- 0 3.0 0.0 10 27
- 0.706587 2 3 tcp 1040 ------- 0 0.0 3.0 14 21
- 0.707893 0 2 tcp 1040 ------- 0 0.0 3.0 18 29
r 0.70928 2 0 ack 40 ------- 0 3.0 0.0 9 24
+ 0.70928 0 2 tcp 1040 ------- 0 0.0 3.0 19 31
+ 0.70928 0 2 tcp 1040 ------- 0 0.0 3.0 20 32
r 0.709573 0 2 tcp 1040 ------- 0 0.0 3.0 15 25
+ 0.709573 2 3 tcp 1040 ------- 0 0.0 3.0 15 25
r 0.709653 2 3 tcp 1040 ------- 0 0.0 3.0 12 19
+ 0.709653 3 2 ack 40 ------- 0 3.0 0.0 12 33
- 0.709653 3 2 ack 40 ------- 0 3.0 0.0 12 33
- 0.712053 0 2 tcp 1040 ------- 0 0.0 3.0 19 31
r 0.712987 3 2 ack 40 ------- 0 3.0 0.0 11 30
+ 0.712987 2 0 ack 40 ------- 0 3.0 0.0 11 30
- 0.712987 2 0 ack 40 ------- 0 3.0 0.0 11 30
- 0.71352 2 3 tcp 1040 ------- 0 0.0 3.0 15 25
r 0.713733 0 2 tcp 1040 ------- 0 0.0 3.0 16 26
+ 0.713733 2 3 tcp 1040 ------- 0 0.0 3.0 16 26
r 0.716213 2 0 ack 40 ------- 0 3.0 0.0 10 27
+ 0.716213 0 2 tcp 1040 ------- 0 0.0 3.0 21 34
+ 0.716213 0 2 tcp 1040 ------- 0 0.0 3.0 22 35
- 0.716213 0 2 tcp 1040 ------- 0 0.0 3.0 20 32
r 0.716587 2 3 tcp 1040 ------- 0 0.0 3.0 13 20
+ 0.716587 3 2 ack 40 ------- 0 3.0 0.0 13 36
- 0.716587 3 2 ack 40 ------- 0 3.0 0.0 13 36
r 0.717893 0 2 tcp 1040 ------- 0 0.0 3.0 17 28
+ 0.717893 2 3 tcp 1040 ------- 0 0.0 3.0 17 28
r 0.71992 3 2 ack 40 ------- 0 3.0 0.0 12 33
+ 0.71992 2 0 ack 40 ------- 0 3.0 0.0 12 33
- 0.71992 2 0 ack 40 ------- 0 3.0 0.0 12 33
- 0.720373 0 2 tcp 1040 ------- 0 0.0 3.0 21 34
- 0.720453 2 3 tcp 1040 ------- 0 0.0 3.0 16 26
r 0.722053 0 2 tcp 1040 ------- 0 0.0 3.0 18 29
+ 0.722053 2 3 tcp 1040 ------- 0 0.0 3.0 18 29
r 0.723147 2 0 ack 40 ------- 0 3.0 0.0 11 30
+ 0.723147 0 2 tcp 1040 ------- 0 0.0 3.0 23 37
+ 0.723147 0 2 tcp 1040 ------- 0 0.0 3.0 24 38
r 0.72352 2 3 tcp 1040 ------- 0 0.0 3.0 14 21
+ 0.72352 3 2 ack 40 ------- 0 3.0 0.0 14 39
- 0.72352 3 2 ack 40 ------- 0 3.0 0.0 14 39
- 0.724533 0 2 tcp 1040 ------- 0 0.0 3.0 22 35
r 0.726213 0 2 tcp 1040 ------- 0 0.0 3.0 19 31
+ 0.726213 2 3 tcp 1040 ------- 0 0.0 3.0 19 31
r 0.726853 3 2 ack 40 ------- 0 3.0 0.0 13 36
+ 0.726853 2 0 ack 40 ------- 0 3.0 0.0 13 36
- 0.726853 2 0 ack 40 ------- 0 3.0 0.0 13 36
- 0.727387 2 3 tcp 1040 ------- 0 0.0 3.0 17 28
- 0.728693 0 2 tcp 1040 ------- 0 0.0 3.0 23 37
r 0.73008 2 0 ack 40 ------- 0 3.0 0.0 12 33
+ 0.73008 0 2 tcp 1040 ------- 0 0.0 3.0 25 40
+ 0.73008 0 2 tcp 1040 ------- 0 0.0 3.0 26 41
r 0.730373 0 2 tcp 1040 ------- 0 0.0 3.0 20 32
+ 0.730373 2 3 tcp 1040 ------- 0 0.0 3.0 20 32
r 0.730453 2 3 tcp 1040 ------- 0 0.0 3.0 15 25
+ 0.730453 3 2 ack 40 ------- 0 3.0 0.0 15 42
- 0.730453 3 2 ack 40 ------- 0 3.0 0.0 15 42
- 0.732853 0 2 tcp 1040 ------- 0 0.0 3.0 24 38
r 0.733787 3 2 ack 40 ------- 0 3.0 0.0 14 39
+ 0.733787 2 0 ack 40 ------- 0 3.0 0.0 14 39
- 0.733787 2 0 ack 40 ------- 0 3.0 0.0 14 39
- 0.73432 2 3 tcp 1040 ------- 0 0.0 3.0 18 29
r 0.734533 0 2 tcp 1040 ------- 0 0.0 3.0 21 34
+ 0.734533 2 3 tcp 1040 ------- 0 0.0 3.0 21 34
r 0.737013 2 0 ack 40 ------- 0 3.0 0.0 13 36
+ 0.737013 0 2 tcp 1040 ------- 0 0.0 3.0 27 43
+ 0.737013 0 2 tcp 1040 ------- 0 0.0 3.0 28 44
- 0.737013 0 2 tcp 1040 ------- 0 0.0 3.0 25 40
r 0.737387 2 3 tcp 1040 ------- 0 0.0 3.0 16 26
+ 0.737387 3 2 ack 40 ------- 0 3.0 0.0 16 45
- 0.737387 3 2 ack 40 ------- 0 3.0 0.0 16 45
r 0.738693 0 2 tcp 1040 ------- 0 0.0 3.0 22 35
+ 0.738693 2 3 tcp 1040 ------- 0 0.0 3.0 22 35
r 0.74072 3 2 ack 40 ------- 0 3.0 0.0 15 42
+ 0.74072 2 0 ack 40 ------- 0 3.0 0.0 15 42
- 0.74072 2 0 ack 40 ------- 0 3.0 0.0 15 42
- 0.741173 0 2 tcp 1040 ------- 0 0.0 3.0 26 41
- 0.741253 2 3 tcp 1040 ------- 0 0.0 3.0 19 31
r 0.742853 0 2 tcp 1040 ------- 0 0.0 3.0 23 37
+ 0.742853 2 3 tcp 1040 ------- 0 0.0 3.0 23 37
r 0.743947 2 0 ack 40 ------- 0 3.0 0.0 14 39
+ 0.743947 0 2 tcp 1040 ------- 0 0.0 3.0 29 46
+ 0.743947 0 2 tcp 1040 ------- 0 0.0 3.0 30 47
r 0.74432 2 3 tcp 1040 ------- 0 0.0 3.0 17 28
+ 0.74432 3 2 ack 40 ------- 0 3.0 0.0 17 48
- 0.74432 3 2 ack 40 ------- 0 3.0 0.0 17 48
- 0.745333 0 2 tcp 1040 ------- 0 0.0 3.0 27 43
r 0.747013 0 2 tcp 1040 ------- 0 0.0 3.0 24 38
+ 0.747013 2 3 tcp 1040 ------- 0 0.0 3.0 24 38
r 0.747653 3 2 ack 40 ------- 0 3.0 0.0 16 45
+ 0.747653 2 0 ack 40 ------- 0 3.0 0.0 16 45
- 0.747653 2 0 ack 40 ------- 0 3.0 0.0 16 45
- 0.748187 2 3 tcp 1040 ------- 0 0.0 3.0 20 32
- 0.749493 0 2 tcp 1040 ------- 0 0.0 3.0 28 44
r 0.75088 2 0 ack 40 ------- 0 3.0 0.0 15 42
+ 0.75088 0 2 tcp 1040 ------- 0 0.0 3.0 31 49
+ 0.75088 0 2 tcp 1040 ------- 0 0.0 3.0 32 50
r 0.751173 0 2 tcp 1040 ------- 0 0.0 3.0 25 40
+ 0.751173 2 3 tcp 1040 ------- 0 0.0 3.0 25 40
r 0.751253 2 3 tcp 1040 ------- 0 0.0 3.0 18 29
+ 0.751253 3 2 ack 40 ------- 0 3.0 0.0 18 51
- 0.751253 3 2 ack 40 ------- 0 3.0 0.0 18 51
- 0.753653 0 2 tcp 1040 ------- 0 0.0 3.0 29 46
r 0.754587 3 2 ack 40 ------- 0 3.0 0.0 17 48
+ 0.754587 2 0 ack 40 ------- 0 3.0 0.0 17 48
- 0.754587 2 0 ack 40 ------- 0 3.0 0.0 17 48
- 0.75512 2 3 tcp 1040 ------- 0 0.0 3.0 21 34
r 0.755333 0 2 tcp 1040 ------- 0 0.0 3.0 26 41
+ 0.755333 2 3 tcp 1040 ------- 0 0.0 3.0 26 41
r 0.757813 2 0 ack 40 ------- 0 3.0 0.0 16 45
+ 0.757813 0 2 tcp 1040 ------- 0 0.0 3.0 33 52
+ 0.757813 0 2 tcp 1040 ------- 0 0.0 3.0 34 53
- 0.757813 0 2 tcp 1040 ------- 0 0.0 3.0 30 47
r 0.758187 2 3 tcp 1040 ------- 0 0.0 3.0 19 31
+ 0.758187 3 2 ack 40 ------- 0 3.0 0.0 19 54
- 0.758187 3 2 ack 40 ------- 0 3.0 0.0 19 54
r 0.759493 0 2 tcp 1040 ------- 0 0.0 3.0 27 43
+ 0.759493 2 3 tcp 1040 ------- 0 0.0 3.0 27 43
r 0.76152 3 2 ack 40 ------- 0 3.0 0.0 18 51
+ 0.76152 2 0 ack 40 ------- 0 3.0 0.0 18 51
- 0.76152 2 0 ack 40 ------- 0 3.0 0.0 18 51
- 0.761973 0 2 tcp 1040 ------- 0 0.0 3.0 31 49
- 0.762053 2 3 tcp 1040 ------- 0 0.0 3.0 22 35
r 0.763653 0 2 tcp 1040 ------- 0 0.0 3.0 28 44
+ 0.763653 2 3 tcp 1040 ------- 0 0.0 3.0 28 44
r 0.764747 2 0 ack 40 ------- 0 3.0 0.0 17 48
+ 0.764747 0 2 tcp 1040 ------- 0 0.0 3.0 35 55
+ 0.764747 0 2 tcp 1040 ------- 0 0.0 3.0 36 56
r 0.76512 2 3 tcp 1040 ------- 0 0.0 3.0 20 32
+ 0.76512 3 2 ack 40 ------- 0 3.0 0.0 20 57
- 0.76512 3 2 ack 40 ------- 0 3.0 0.0 20 57
- 0.766133 0 2 tcp 1040 ------- 0 0.0 3.0 32 50
r 0.767813 0 2 tcp 1040 ------- 0 0.0 3.0 29 46
+ 0.767813 2 3 tcp 1040 ------- 0 0.0 3.0 29 46
r 0.768453 3 2 ack 40 ------- 0 3.0 0.0 19 54
+ 0.768453 2 0 ack 40 ------- 0 3.0 0.0 19 54
- 0.768453 2 0 ack 40 ------- 0 3.0 0.0 19 54
- 0.768987 2 3 tcp 1040 ------- 0 0.0 3.0 23 37
- 0.770293 0 2 tcp 1040 ------- 0 0.0 3.0 33 52
r 0.77168 2 0 ack 40 ------- 0 3.0 0.0 18 51
+ 0.77168 0 2 tcp 1040 ------- 0 0.0 3.0 37 58
+ 0.77168 0 2 tcp 1040 ------- 0 0.0 3.0 38 59
r 0.771973 0 2 tcp 1040 ------- 0 0.0 3.0 30 47
+ 0.771973 2 3 tcp 1040 ------- 0 0.0 3.0 30 47
r 0.772053 2 3 tcp 1040 ------- 0 0.0 3.0 21 34
+ 0.772053 3 2 ack 40 ------- 0 3.0 0.0 21 60
- 0.772053 3 2 ack 40 ------- 0 3.0 0.0 21 60
- 0.774453 0 2 tcp 1040 ------- 0 0.0 3.0 34 53
r 0.775387 3 2 ack 40 ------- 0 3.0 0.0 20 57
+ 0.775387 2 0 ack 40 ------- 0 3.0 0.0 20 57
- 0.775387 2 0 ack 40 ------- 0 3.0 0.0 20 57
- 0.77592 2 3 tcp 1040 ------- 0 0.0 3.0 24 38
r 0.776133 0 2 tcp 1040 ------- 0 0.0 3.0 31 49
+ 0.776133 2 3 tcp 1040 ------- 0 0.0 3.0 31 49
r 0.778613 2 0 ack 40 ------- 0 3.0 0.0 19 54
+ 0.778613 0 2 tcp 1040 ------- 0 0.0 3.0 39 61
- 0.778613 0 2 tcp 1040 ------- 0 0.0 3.0 35 55
r 0.778987 2 3 tcp 1040 ------- 0 0.0 3.0 22 35
+ 0.778987 3 2 ack 40 ------- 0 3.0 0.0 22 62
- 0.778987 3 2 ack 40 ------- 0 3.0 0.0 22 62
r 0.780293 0 2 tcp 1040 ------- 0 0.0 3.0 32 50
+ 0.780293 2 3 tcp 1040 ------- 0 0.0 3.0 32 50
r 0.78232 3 2 ack 40 ------- 0 3.0 0.0 21 60
+ 0.78232 2 0 ack 40 ------- 0 3.0 0.0 21 60
- 0.78232 2 0 ack 40 ------- 0 3.0 0.0 21 60
- 0.782773 0 2 tcp 1040 ------- 0 0.0 3.0 36 56
- 0.782853 2 3 tcp 1040 ------- 0 0.0 3.0 25 40
r 0.784453 0 2 tcp 1040 ------- 0 0.0 3.0 33 52
+ 0.784453 2 3 tcp 1040 ------- 0 0.0 3.0 33 52
r 0.785547 2 0 ack 40 ------- 0 3.0 0.0 20 57
+ 0.785547 0 2 tcp 1040 ------- 0 0.0 3.0 40 63
r 0.78592 2 3 tcp 1040 ------- 0 0.0 3.0 23 37
+ 0.78592 3 2 ack 40 ------- 0 3.0 0.0 23 64
- 0.78592 3 2 ack 40 ------- 0 3.0 0.0 23 64
- 0.786933 0 2 tcp 1040 ------- 0 0.0 3.0 37 58
r 0.788613 0 2 tcp 1040 ------- 0 0.0 3.0 34 53
+ 0.788613 2 3 tcp 1040 ------- 0 0.0 3.0 34 53
r 0.789253 3 2 ack 40 ------- 0 3.0 0.0 22 62
+ 0.789253 2 0 ack 40 ------- 0 3.0 0.0 22 62
- 0.789253 2 0 ack 40 ------- 0 3.0 0.0 22 62
- 0.789787 2 3 tcp 1040 ------- 0 0.0 3.0 26 41
- 0.791093 0 2 tcp 1040 ------- 0 0.0 3.0 38 59
r 0.79248 2 0 ack 40 ------- 0 3.0 0.0 21 60
+ 0.79248 0 2 tcp 1040 ------- 0 0.0 3.0 41 65
r 0.792773 0 2 tcp 1040 ------- 0 0.0 3.0 35 55
+ 0.792773 2 3 tcp 1040 ------- 0 0.0 3.0 35 55
r 0.792853 2 3 tcp 1040 ------- 0 0.0 3.0 24 38
+ 0.792853 3 2 ack 40 ------- 0 3.0 0.0 24 66
- 0.792853 3 2 ack 40 ------- 0 3.0 0.0 24 66
- 0.795253 0 2 tcp 1040 ------- 0 0.0 3.0 39 61
r 0.796187 3 2 ack 40 ------- 0 3.0 0.0 23 64
+ 0.796187 2 0 ack 40 ------- 0 3.0 0.0 23 64
- 0.796187 2 0 ack 40 ------- 0 3.0 0.0 23 64
- 0.79672 2 3 tcp 1040 ------- 0 0.0 3.0 27 43
r 0.796933 0 2 tcp 1040 ------- 0 0.0 3.0 36 56
+ 0.796933 2 3 tcp 1040 ------- 0 0.0 3.0 36 56
r 0.799413 2 0 ack 40 ------- 0 3.0 0.0 22 62
+ 0.799413 0 2 tcp 1040 ------- 0 0.0 3.0 42 67
- 0.799413 0 2 tcp 1040 ------- 0 0.0 3.0 40 63
r 0.799787 2 3 tcp 1040 ------- 0 0.0 3.0 25 40
+ 0.799787 3 2 ack 40 ------- 0 3.0 0.0 25 68
- 0.799787 3 2 ack 40 ------- 0 3.0 0.0 25 68
r 0.801093 0 2 tcp 1040 ------- 0 0.0 3.0 37 58
+ 0.801093 2 3 tcp 1040 ------- 0 0.0 3.0 37 58
r 0.80312 3 2 ack 40 ------- 0 3.0 0.0 24 66
+ 0.80312 2 0 ack 40 ------- 0 3.0 0.0 24 66
- 0.80312 2 0 ack 40 ------- 0 3.0 0.0 24 66
- 0.803573 0 2 tcp 1040 ------- 0 0.0 3.0 41 65
- 0.803653 2 3 tcp 1040 ------- 0 0.0 3.0 28 44
r 0.805253 0 2 tcp 1040 ------- 0 0.0 3.0 38 59
+ 0.805253 2 3 tcp 1040 ------- 0 0.0 3.0 38 59
r 0.806347 2 0 ack 40 ------- 0 3.0 0.0 23 64
+ 0.806347 0 2 tcp 1040 ------- 0 0.0 3.0 43 69
r 0.80672 2 3 tcp 1040 ------- 0 0.0 3.0 26 41
+ 0.80672 3 2 ack 40 ------- 0 3.0 0.0 26 70
- 0.80672 3 2 ack 40 ------- 0 3.0 0.0 26 70
- 0.807733 0 2 tcp 1040 ------- 0 0.0 3.0 42 67
r 0.809413 0 2 tcp 1040 ------- 0 0.0 3.0 39 61
+ 0.809413 2 3 tcp 1040 ------- 0 0.0 3.0 39 61
r 0.810053 3 2 ack 40 ------- 0 3.0 0.0 25 68
+ 0.810053 2 0 ack 40 ------- 0 3.0 0.0 25 68
- 0.810053 2 0 ack 40 ------- 0 3.0 0.0 25 68
- 0.810587 2 3 tcp 1040 ------- 0 0.0 3.0 29 46
- 0.811893 0 2 tcp 1040 ------- 0 0.0 3.0 43 69
r 0.81328 2 0 ack 40 ------- 0 3.0 0.0 24 66
+ 0.81328 0 2 tcp 1040 ------- 0 0.0 3.0 44 71
r 0.813573 0 2 tcp 1040 ------- 0 0.0 3.0 40 63
+ 0.813573 2 3 tcp 1040 ------- 0 0.0 3.0 40 63
r 0.813653 2 3 tcp 1040 ------- 0 0.0 3.0 27 43
+ 0.813653 3 2 ack 40 ------- 0 3.0 0.0 27 72
- 0.813653 3 2 ack 40 ------- 0 3.0 0.0 27 72
- 0.816053 0 2 tcp 1040 ------- 0 0.0 3.0 44 71
r 0.816987 3 2 ack 40 ------- 0 3.0 0.0 26 70
+ 0.816987 2 0 ack 40 ------- 0 3.0 0.0 26 70
- 0.816987 2 0 ack 40 ------- 0 3.0 0.0 26 70
- 0.81752 2 3 tcp 1040 ------- 0 0.0 3.0 30 47
r 0.817733 0 2 tcp 1040 ------- 0 0.0 3.0 41 65
+ 0.817733 2 3 tcp 1040 ------- 0 0.0 3.0 41 65
r 0.820213 2 0 ack 40 ------- 0 3.0 0.0 25 68
+ 0.820213 0 2 tcp 1040 ------- 0 0.0 3.0 45 73
- 0.820213 0 2 tcp 1040 ------- 0 0.0 3.0 45 73
r 0.820587 2 3 tcp 1040 ------- 0 0.0 3.0 28 44
+ 0.820587 3 2 ack 40 ------- 0 3.0 0.0 28 74
- 0.820587 3 2 ack 40 ------- 0 3.0 0.0 28 74
r 0.821893 0 2 tcp 1040 ------- 0 0.0 3.0 42 67
+ 0.821893 2 3 tcp 1040 ------- 0 0.0 3.0 42 67
r 0.82392 3 2 ack 40 ------- 0 3.0 0.0 27 72
+ 0.82392 2 0 ack 40 ------- 0 3.0 0.0 27 72
- 0.82392 2 0 ack 40 ------- 0 3.0 0.0 27 72
- 0.824453 2 3 tcp 1040 ------- 0 0.0 3.0 31 49
r 0.826053 0 2 tcp 1040 ------- 0 0.0 3.0 43 69
+ 0.826053 2 3 tcp 1040 ------- 0 0.0 3.0 43 69
r 0.827147 2 0 ack 40 ------- 0 3.0 0.0 26 70
+ 0.827147 0 2 tcp 1040 ------- 0 0.0 3.0 46 75
- 0.827147 0 2 tcp 1040 ------- 0 0.0 3.0 46 75
r 0.82752 2 3 tcp 1040 ------- 0 0.0 3.0 29 46
+ 0.82752 3 2 ack 40 ------- 0 3.0 0.0 29 76
- 0.82752 3 2 ack 40 ------- 0 3.0 0.0 29 76
r 0.830213 0 2 tcp 1040 ------- 0 0.0 3.0 44 71
+ 0.830213 2 3 tcp 1040 ------- 0 0.0 3.0 44 71
r 0.830853 3 2 ack 40 ------- 0 3.0 0.0 28 74
+ 0.830853 2 0 ack 40 ------- 0 3.0 0.0 28 74
- 0.830853 2 0 ack 40 ------- 0 3.0 0.0 28 74
- 0.831387 2 3 tcp 1040 ------- 0 0.0 3.0 32 50
r 0.83408 2 0 ack 40 ------- 0 3.0 0.0 27 72
+ 0.83408 0 2 tcp 1040 ------- 0 0.0 3.0 47 77
- 0.83408 0 2 tcp 1040 ------- 0 0.0 3.0 47 77
r 0.834373 0 2 tcp 1040 ------- 0 0.0 3.0 45 73
+ 0.834373 2 3 tcp 1040 ------- 0 0.0 3.0 45 73
r 0.834453 2 3 tcp 1040 ------- 0 0.0 3.0 30 47
+ 0.834453 3 2 ack 40 ------- 0 3.0 0.0 30 78
- 0.834453 3 2 ack 40 ------- 0 3.0 0.0 30 78
r 0.837787 3 2 ack 40 ------- 0 3.0 0.0 29 76
+ 0.837787 2 0 ack 40 ------- 0 3.0 0.0 29 76
- 0.837787 2 0 ack 40 ------- 0 3.0 0.0 29 76
- 0.83832 2 3 tcp 1040 ------- 0 0.0 3.0 33 52
r 0.841013 2 0 ack 40 ------- 0 3.0 0.0 28 74
+ 0.841013 0 2 tcp 1040 ------- 0 0.0 3.0 48 79
- 0.841013 0 2 tcp 1040 ------- 0 0.0 3.0 48 79
r 0.841307 0 2 tcp 1040 ------- 0 0.0 3.0 46 75
+ 0.841307 2 3 tcp 1040 ------- 0 0.0 3.0 46 75
r 0.841387 2 3 tcp 1040 ------- 0 0.0 3.0 31 49
+ 0.841387 3 2 ack 40 ------- 0 3.0 0.0 31 80
- 0.841387 3 2 ack 40 ------- 0 3.0 0.0 31 80
r 0.84472 3 2 ack 40 ------- 0 3.0 0.0 30 78
+ 0.84472 2 0 ack 40 ------- 0 3.0 0.0 30 78
- 0.84472 2 0 ack 40 ------- 0 3.0 0.0 30 78
- 0.845253 2 3 tcp 1040 ------- 0 0.0 3.0 34 53
r 0.847947 2 0 ack 40 ------- 0 3.0 0.0 29 76
+ 0.847947 0 2 tcp 1040 ------- 0 0.0 3.0 49 81
- 0.847947 0 2 tcp 1040 ------- 0 0.0 3.0 49 81
r 0.84824 0 2 tcp 1040 ------- 0 0.0 3.0 47 77
+ 0.84824 2 3 tcp 1040 ------- 0 0.0 3.0 47 77
r 0.84832 2 3 tcp 1040 ------- 0 0.0 3.0 32 50
+ 0.84832 3 2 ack 40 ------- 0 3.0 0.0 32 82
- 0.84832 3 2 ack 40 ------- 0 3.0 0.0 32 82
r 0.851653 3 2 ack 40 ------- 0 3.0 0.0 31 80
+ 0.851653 2 0 ack 40 ------- 0 3.0 0.0 31 80
- 0.851653 2 0 ack 40 ------- 0 3.0 0.0 31 80
- 0.852187 2 3 tcp 1040 ------- 0 0.0 3.0 35 55
r 0.85488 2 0 ack 40 ------- 0 3.0 0.0 30 78
+ 0.85488 0 2 tcp 1040 ------- 0 0.0 3.0 50 83
- 0.85488 0 2 tcp 1040 ------- 0 0.0 3.0 50 83
r 0.855173 0 2 tcp 1040 ------- 0 0.0 3.0 48 79
+ 0.855173 2 3 tcp 1040 ------- 0 0.0 3.0 48 79
r 0.855253 2 3 tcp 1040 ------- 0 0.0 3.0 33 52
+ 0.855253 3 2 ack 40 ------- 0 3.0 0.0 33 84
- 0.855253 3 2 ack 40 ------- 0 3.0 0.0 33 84
r 0.858587 3 2 ack 40 ------- 0 3.0 0.0 32 82
+ 0.858587 2 0 ack 40 ------- 0 3.0 0.0 32 82
- 0.858587 2 0 ack 40 ------- 0 3.0 0.0 32 82
- 0.85912 2 3 tcp 1040 ------- 0 0.0 3.0 36 56
r 0.861813 2 0 ack 40 ------- 0 3.0 0.0 31 80
+ 0.861813 0 2 tcp 1040 ------- 0 0.0 3.0 51 85
- 0.861813 0 2 tcp 1040 ------- 0 0.0 3.0 51 85
r 0.862107 0 2 tcp 1040 ------- 0 0.0 3.0 49 81
+ 0.862107 2 3 tcp 1040 ------- 0 0.0 3.0 49 81
r 0.862187 2 3 tcp 1040 ------- 0 0.0 3.0 34 53
+ 0.862187 3 2 ack 40 ------- 0 3.0 0.0 34 86
- 0.862187 3 2 ack 40 ------- 0 3.0 0.0 34 86
r 0.86552 3 2 ack 40 ------- 0 3.0 0.0 33 84
+ 0.86552 2 0 ack 40 ------- 0 3.0 0.0 33 84
- 0.86552 2 0 ack 40 ------- 0 3.0 0.0 33 84
- 0.866053 2 3 tcp 1040 ------- 0 0.0 3.0 37 58
r 0.868747 2 0 ack 40 ------- 0 3.0 0.0 32 82
+ 0.868747 0 2 tcp 1040 ------- 0 0.0 3.0 52 87
- 0.868747 0 2 tcp 1040 ------- 0 0.0 3.0 52 87
r 0.86904 0 2 tcp 1040 ------- 0 0.0 3.0 50 83
+ 0.86904 2 3 tcp 1040 ------- 0 0.0 3.0 50 83
r 0.86912 2 3 tcp 1040 ------- 0 0.0 3.0 35 55
+ 0.86912 3 2 ack 40 ------- 0 3.0 0.0 35 88
- 0.86912 3 2 ack 40 ------- 0 3.0 0.0 35 88
r 0.872453 3 2 ack 40 ------- 0 3.0 0.0 34 86
+ 0.872453 2 0 ack 40 ------- 0 3.0 0.0 34 86
- 0.872453 2 0 ack 40 ------- 0 3.0 0.0 34 86
- 0.872987 2 3 tcp 1040 ------- 0 0.0 3.0 38 59
r 0.87568 2 0 ack 40 ------- 0 3.0 0.0 33 84
+ 0.87568 0 2 tcp 1040 ------- 0 0.0 3.0 53 89
- 0.87568 0 2 tcp 1040 ------- 0 0.0 3.0 53 89
r 0.875973 0 2 tcp 1040 ------- 0 0.0 3.0 51 85
+ 0.875973 2 3 tcp 1040 ------- 0 0.0 3.0 51 85
r 0.876053 2 3 tcp 1040 ------- 0 0.0 3.0 36 56
+ 0.876053 3 2 ack 40 ------- 0 3.0 0.0 36 90
- 0.876053 3 2 ack 40 ------- 0 3.0 0.0 36 90
r 0.879387 3 2 ack 40 ------- 0 3.0 0.0 35 88
+ 0.879387 2 0 ack 40 ------- 0 3.0 0.0 35 88
- 0.879387 2 0 ack 40 ------- 0 3.0 0.0 35 88
- 0.87992 2 3 tcp 1040 ------- 0 0.0 3.0 39 61
r 0.882613 2 0 ack 40 ------- 0 3.0 0.0 34 86
+ 0.882613 0 2 tcp 1040 ------- 0 0.0 3.0 54 91
- 0.882613 0 2 tcp 1040 ------- 0 0.0 3.0 54 91
r 0.882907 0 2 tcp 1040 ------- 0 0.0 3.0 52 87
+ 0.882907 2 3 tcp 1040 ------- 0 0.0 3.0 52 87
r 0.882987 2 3 tcp 1040 ------- 0 0.0 3.0 37 58
+ 0.882987 3 2 ack 40 ------- 0 3.0 0.0 37 92
- 0.882987 3 2 ack 40 ------- 0 3.0 0.0 37 92
r 0.88632 3 2 ack 40 ------- 0 3.0 0.0 36 90
+ 0.88632 2 0 ack 40 ------- 0 3.0 0.0 36 90
- 0.88632 2 0 ack 40 ------- 0 3.0 0.0 36 90
- 0.886853 2 3 tcp 1040 ------- 0 0.0 3.0 40 63
r 0.889547 2 0 ack 40 ------- 0 3.0 0.0 35 88
+ 0.889547 0 2 tcp 1040 ------- 0 0.0 3.0 55 93
- 0.889547 0 2 tcp 1040 ------- 0 0.0 3.0 55 93
r 0.88984 0 2 tcp 1040 ------- 0 0.0 3.0 53 89
+ 0.88984 2 3 tcp 1040 ------- 0 0.0 3.0 53 89
r 0.88992 2 3 tcp 1040 ------- 0 0.0 3.0 38 59
+ 0.88992 3 2 ack 40 ------- 0 3.0 0.0 38 94
- 0.88992 3 2 ack 40 ------- 0 3.0 0.0 38 94
r 0.893253 3 2 ack 40 ------- 0 3.0 0.0 37 92
+ 0.893253 2 0 ack 40 ------- 0 3.0 0.0 37 92
- 0.893253 2 0 ack 40 ------- 0 3.0 0.0 37 92
- 0.893787 2 3 tcp 1040 ------- 0 0.0 3.0 41 65
r 0.89648 2 0 ack 40 ------- 0 3.0 0.0 36 90
+ 0.89648 0 2 tcp 1040 ------- 0 0.0 3.0 56 95
- 0.89648 0 2 tcp 1040 ------- 0 0.0 3.0 56 95
r 0.896773 0 2 tcp 1040 ------- 0 0.0 3.0 54 91
+ 0.896773 2 3 tcp 1040 ------- 0 0.0 3.0 54 91
r 0.896853 2 3 tcp 1040 ------- 0 0.0 3.0 39 61
+ 0.896853 3 2 ack 40 ------- 0 3.0 0.0 39 96
- 0.896853 3 2 ack 40 ------- 0 3.0 0.0 39 96
r 0.900187 3 2 ack 40 ------- 0 3.0 0.0 38 94
+ 0.900187 2 0 ack 40 ------- 0 3.0 0.0 38 94
- 0.900187 2 0 ack 40 ------- 0 3.0 0.0 38 94
- 0.90072 2 3 tcp 1040 ------- 0 0.0 3.0 42 67
r 0.903413 2 0 ack 40 ------- 0 3.0 0.0 37 92
+ 0.903413 0 2 tcp 1040 ------- 0 0.0 3.0 57 97
- 0.903413 0 2 tcp 1040 ------- 0 0.0 3.0 57 97
r 0.903707 0 2 tcp 1040 ------- 0 0.0 3.0 55 93
+ 0.903707 2 3 tcp 1040 ------- 0 0.0 3.0 55 93
r 0.903787 2 3 tcp 1040 ------- 0 0.0 3.0 40 63
+ 0.903787 3 2 ack 40 ------- 0 3.0 0.0 40 98
- 0.903787 3 2 ack 40 ------- 0 3.0 0.0 40 98
r 0.90712 3 2 ack 40 ------- 0 3.0 0.0 39 96
+ 0.90712 2 0 ack 40 ------- 0 3.0 0.0 39 96
- 0.90712 2 0 ack 40 ------- 0 3.0 0.0 39 96
- 0.907653 2 3 tcp 1040 ------- 0 0.0 3.0 43 69
r 0.910347 2 0 ack 40 ------- 0 3.0 0.0 38 94
+ 0.910347 0 2 tcp 1040 ------- 0 0.0 3.0 58 99
- 0.910347 0 2 tcp 1040 ------- 0 0.0 3.0 58 99
r 0.91064 0 2 tcp 1040 ------- 0 0.0 3.0 56 95
+ 0.91064 2 3 tcp 1040 ------- 0 0.0 3.0 56 95
r 0.91072 2 3 tcp 1040 ------- 0 0.0 3.0 41 65
+ 0.91072 3 2 ack 40 ------- 0 3.0 0.0 41 100
- 0.91072 3 2 ack 40 ------- 0 3.0 0.0 41 100
r 0.914053 3 2 ack 40 ------- 0 3.0 0.0 40 98
+ 0.914053 2 0 ack 40 ------- 0 3.0 0.0 40 98
- 0.914053 2 0 ack 40 ------- 0 3.0 0.0 40 98
- 0.914587 2 3 tcp 1040 ------- 0 0.0 3.0 44 71
r 0.91728 2 0 ack 40 ------- 0 3.0 0.0 39 96
+ 0.91728 0 2 tcp 1040 ------- 0 0.0 3.0 59 101
- 0.91728 0 2 tcp 1040 ------- 0 0.0 3.0 59 101
r 0.917573 0 2 tcp 1040 ------- 0 0.0 3.0 57 97
+ 0.917573 2 3 tcp 1040 ------- 0 0.0 3.0 57 97
r 0.917653 2 3 tcp 1040 ------- 0 0.0 3.0 42 67
+ 0.917653 3 2 ack 40 ------- 0 3.0 0.0 42 102
- 0.917653 3 2 ack 40 ------- 0 3.0 0.0 42 102
r 0.920987 3 2 ack 40 ------- 0 3.0 0.0 41 100
+ 0.920987 2 0 ack 40 ------- 0 3.0 0.0 41 100
- 0.920987 2 0 ack 40 ------- 0 3.0 0.0 41 100
- 0.92152 2 3 tcp 1040 ------- 0 0.0 3.0 45 73
r 0.924213 2 0 ack 40 ------- 0 3.0 0.0 40 98
+ 0.924213 0 2 tcp 1040 ------- 0 0.0 3.0 60 103
- 0.924213 0 2 tcp 1040 ------- 0 0.0 3.0 60 103
r 0.924507 0 2 tcp 1040 ------- 0 0.0 3.0 58 99
+ 0.924507 2 3 tcp 1040 ------- 0 0.0 3.0 58 99
r 0.924587 2 3 tcp 1040 ------- 0 0.0 3.0 43 69
+ 0.924587 3 2 ack 40 ------- 0 3.0 0.0 43 104
- 0.924587 3 2 ack 40 ------- 0 3.0 0.0 43 104
r 0.92792 3 2 ack 40 ------- 0 3.0 0.0 42 102
+ 0.92792 2 0 ack 40 ------- 0 3.0 0.0 42 102
- 0.92792 2 0 ack 40 ------- 0 3.0 0.0 42 102
- 0.928453 2 3 tcp 1040 ------- 0 0.0 3.0 46 75
r 0.931147 2 0 ack 40 ------- 0 3.0 0.0 41 100
+ 0.931147 0 2 tcp 1040 ------- 0 0.0 3.0 61 105
- 0.931147 0 2 tcp 1040 ------- 0 0.0 3.0 61 105
r 0.93144 0 2 tcp 1040 ------- 0 0.0 3.0 59 101
+ 0.93144 2 3 tcp 1040 ------- 0 0.0 3.0 59 101
r 0.93152 2 3 tcp 1040 ------- 0 0.0 3.0 44 71
+ 0.93152 3 2 ack 40 ------- 0 3.0 0.0 44 106
- 0.93152 3 2 ack 40 ------- 0 3.0 0.0 44 106
r 0.934853 3 2 ack 40 ------- 0 3.0 0.0 43 104
+ 0.934853 2 0 ack 40 ------- 0 3.0 0.0 43 104
- 0.934853 2 0 ack 40 ------- 0 3.0 0.0 43 104
- 0.935387 2 3 tcp 1040 ------- 0 0.0 3.0 47 77
r 0.93808 2 0 ack 40 ------- 0 3.0 0.0 42 102
+ 0.93808 0 2 tcp 1040 ------- 0 0.0 3.0 62 107
- 0.93808 0 2 tcp 1040 ------- 0 0.0 3.0 62 107
r 0.938373 0 2 tcp 1040 ------- 0 0.0 3.0 60 103
+ 0.938373 2 3 tcp 1040 ------- 0 0.0 3.0 60 103
r 0.938453 2 3 tcp 1040 ------- 0 0.0 3.0 45 73
+ 0.938453 3 2 ack 40 ------- 0 3.0 0.0 45 108
- 0.938453 3 2 ack 40 ------- 0 3.0 0.0 45 108
r 0.941787 3 2 ack 40 ------- 0 3.0 0.0 44 106
+ 0.941787 2 0 ack 40 ------- 0 3.0 0.0 44 106
- 0.941787 2 0 ack 40 ------- 0 3.0 0.0 44 106
- 0.94232 2 3 tcp 1040 ------- 0 0.0 3.0 48 79
r 0.945013 2 0 ack 40 ------- 0 3.0 0.0 43 104
+ 0.945013 0 2 tcp 1040 ------- 0 0.0 3.0 63 109
- 0.945013 0 2 tcp 1040 ------- 0 0.0 3.0 63 109
r 0.945307 0 2 tcp 1040 ------- 0 0.0 3.0 61 105
+ 0.945307 2 3 tcp 1040 ------- 0 0.0 3.0 61 105
r 0.945387 2 3 tcp 1040 ------- 0 0.0 3.0 46 75
+ 0.945387 3 2 ack 40 ------- 0 3.0 0.0 46 110
- 0.945387 3 2 ack 40 ------- 0 3.0 0.0 46 110
r 0.94872 3 2 ack 40 ------- 0 3.0 0.0 45 108
+ 0.94872 2 0 ack 40 ------- 0 3.0 0.0 45 108
- 0.94872 2 0 ack 40 ------- 0 3.0 0.0 45 108
- 0.949253 2 3 tcp 1040 ------- 0 0.0 3.0 49 81
r 0.951947 2 0 ack 40 ------- 0 3.0 0.0 44 106
+ 0.951947 0 2 tcp 1040 ------- 0 0.0 3.0 64 111
- 0.951947 0 2 tcp 1040 ------- 0 0.0 3.0 64 111
r 0.95224 0 2 tcp 1040 ------- 0 0.0 3.0 62 107
+ 0.95224 2 3 tcp 1040 ------- 0 0.0 3.0 62 107
r 0.95232 2 3 tcp 1040 ------- 0 0.0 3.0 47 77
+ 0.95232 3 2 ack 40 ------- 0 3.0 0.0 47 112
- 0.95232 3 2 ack 40 ------- 0 3.0 0.0 47 112
r 0.955653 3 2 ack 40 ------- 0 3.0 0.0 46 110
+ 0.955653 2 0 ack 40 ------- 0 3.0 0.0 46 110
- 0.955653 2 0 ack 40 ------- 0 3.0 0.0 46 110
- 0.956187 2 3 tcp 1040 ------- 0 0.0 3.0 50 83
r 0.95888 2 0 ack 40 ------- 0 3.0 0.0 45 108
+ 0.95888 0 2 tcp 1040 ------- 0 0.0 3.0 65 113
- 0.95888 0 2 tcp 1040 ------- 0 0.0 3.0 65 113
r 0.959173 0 2 tcp 1040 ------- 0 0.0 3.0 63 109
+ 0.959173 2 3 tcp 1040 ------- 0 0.0 3.0 63 109
r 0.959253 2 3 tcp 1040 ------- 0 0.0 3.0 48 79