V -t * -v 1.0a5 -a 0
A -t * -n 1 -p 0 -o 0x7fffffff -c 30 -a 1
A -t * -h 1 -m 1073741823 -s 0
n -t * -a 0 -s 0 -S UP -v circle -c black -i black
n -t * -a 1 -s 1 -S UP -v circle -c black -i black
n -t * -a 2 -s 2 -S UP -v circle -c black -i black
n -t * -a 3 -s 3 -S UP -v circle -c black -i black
l -t * -s 0 -d 2 -S UP -r 800000 -D 0.01 -c black
l -t * -s 1 -d 2 -S UP -r 800000 -D 0.01 -c black
l -t * -s 2 -d 3 -S UP -r 800000 -D 0.01 -c black
+ -t 0.6 -s 1 -d 2 -p tcp -e 40 -c 0 -i 0 -a 0 -x {1.0 3.1 0 ------- null}
- -t 0.6 -s 1 -d 2 -p tcp -e 40 -c 0 -i 0 -a 0 -x {1.0 3.1 0 ------- null}
h -t 0.6 -s 1 -d 2 -p tcp -e 40 -c 0 -i 0 -a 0 -x {1.0 3.1 -1 ------- null}
r -t 0.6104 -s 1 -d 2 -p tcp -e 40 -c 0 -i 0 -a 0 -x {1.0 3.1 0 ------- null}
+ -t 0.6104 -s 2 -d 3 -p tcp -e 40 -c 0 -i 0 -a 0 -x {1.0 3.1 0 ------- null}
- -t 0.6104 -s 2 -d 3 -p tcp -e 40 -c 0 -i 0 -a 0 -x {1.0 3.1 0 ------- null}
h -t 0.6104 -s 2 -d 3 -p tcp -e 40 -c 0 -i 0 -a 0 -x {1.0 3.1 -1 ------- null}
r -t 0.6208 -s 2 -d 3 -p tcp -e 40 -c 0 -i 0 -a 0 -x {1.0 3.1 0 ------- null}
+ -t 0.6208 -s 3 -d 2 -p ack -e 40 -c 0 -i 1 -a 0 -x {3.1 1.0 0 ------- null}
- -t 0.6208 -s 3 -d 2 -p ack -e 40 -c 0 -i 1 -a 0 -x {3.1 1.0 0 ------- null}
h -t 0.6208 -s 3 -d 2 -p ack -e 40 -c 0 -i 1 -a 0 -x {3.1 1.0 -1 ------- null}
r -t 0.6312 -s 3 -d 2 -p ack -e 40 -c 0 -i 1 -a 0 -x {3.1 1.0 0 ------- null}
+ -t 0.6312 -s 2 -d 1 -p ack -e 40 -c 0 -i 1 -a 0 -x {3.1 1.0 0 ------- null}
- -t 0.6312 -s 2 -d 1 -p ack -e 40 -c 0 -i 1 -a 0 -x {3.1 1.0 0 ------- null}
h -t 0.6312 -s 2 -d 1 -p ack -e 40 -c 0 -i 1 -a 0 -x {3.1 1.0 -1 ------- null}
r -t 0.6416 -s 2 -d 1 -p ack -e 40 -c 0 -i 1 -a 0 -x {3.1 1.0 0 ------- null}
+ -t 0.6416 -s 1 -d 2 -p tcp -e 1040 -c 0 -i 2 -a 0 -x {1.0 3.1 1 ------- null}
- -t 0.6416 -s 1 -d 2 -p tcp -e 1040 -c 0 -i 2 -a 0 -x {1.0 3.1 1 ------- null}
h -t 0.6416 -s 1 -d 2 -p tcp -e 1040 -c 0 -i 2 -a 0 -x {1.0 3.1 -1 ------- null}
+ -t 0.6416 -s 1 -d 2 -p tcp -e 1040 -c 0 -i 3 -a 0 -x {1.0 3.1 2 ------- null}
- -t 0.652 -s 1 -d 2 -p tcp -e 1040 -c 0 -i 3 -a 0 -x {1.0 3.1 2 ------- null}
h -t 0.652 -s 1 -d 2 -p tcp -e 1040 -c 0 -i 3 -a 0 -x {1.0 3.1 -1 ------- null}
r -t 0.662 -s 1 -d 2 -p tcp -e 1040 -c 0 -i 2 -a 0 -x {1.0 3.1 1 ------- null}
+ -t 0.662 -s 2 -d 3 -p tcp -e 1040 -c 0 -i 2 -a 0 -x {1.0 3.1 1 ------- null}
- -t 0.662 -s 2 -d 3 -p tcp -e 1040 -c 0 -i 2 -a 0 -x {1.0 3.1 1 ------- null}
h -t 0.662 -s 2 -d 3 -p tcp -e 1040 -c 0 -i 2 -a 0 -x {1.0 3.1 -1 ------- null}
r -t 0.6724 -s 1 -d 2 -p tcp -e 1040 -c 0 -i 3 -a 0 -x {1.0 3.1 2 ------- null}
+ -t 0.6724 -s 2 -d 3 -p tcp -e 1040 -c 0 -i 3 -a 0 -x {1.0 3.1 2 ------- null}
- -t 0.6724 -s 2 -d 3 -p tcp -e 1040 -c 0 -i 3 -a 0 -x {1.0 3.1 2 ------- null}
h -t 0.6724 -s 2 -d 3 -p tcp -e 1040 -c 0 -i 3 -a 0 -x {1.0 3.1 -1 ------- null}
r -t 0.6824 -s 2 -d 3 -p tcp -e 1040 -c 0 -i 2 -a 0 -x {1.0 3.1 1 ------- null}
+ -t 0.6824 -s 3 -d 2 -p ack -e 40 -c 0 -i 4 -a 0 -x {3.1 1.0 1 ------- null}
- -t 0.6824 -s 3 -d 2 -p ack -e 40 -c 0 -i 4 -a 0 -x {3.1 1.0 1 ------- null}
h -t 0.6824 -s 3 -d 2 -p ack -e 40 -c 0 -i 4 -a 0 -x {3.1 1.0 -1 ------- null}
r -t 0.6928 -s 2 -d 3 -p tcp -e 1040 -c 0 -i 3 -a 0 -x {1.0 3.1 2 ------- null}
+ -t 0.6928 -s 3 -d 2 -p ack -e 40 -c 0 -i 5 -a 0 -x {3.1 1.0 2 ------- null}
- -t 0.6928 -s 3 -d 2 -p ack -e 40 -c 0 -i 5 -a 0 -x {3.1 1.0 2 ------- null}
h -t 0.6928 -s 3 -d 2 -p ack -e 40 -c 0 -i 5 -a 0 -x {3.1 1.0 -1 ------- null}
r -t 0.6928 -s 3 -d 2 -p ack -e 40 -c 0 -i 4 -a 0 -x {3.1 1.0 1 ------- null}
+ -t 0.6928 -s 2 -d 1 -p ack -e 40 -c 0 -i 4 -a 0 -x {3.1 1.0 1 ------- null}
- -t 0.6928 -s 2 -d 1 -p ack -e 40 -c 0 -i 4 -a 0 -x {3.1 1.0 1 ------- null}
h -t 0.6928 -s 2 -d 1 -p ack -e 40 -c 0 -i 4 -a 0 -x {3.1 1.0 -1 ------- null}
r -t 0.7032 -s 3 -d 2 -p ack -e 40 -c 0 -i 5 -a 0 -x {3.1 1.0 2 ------- null}
+ -t 0.7032 -s 2 -d 1 -p ack -e 40 -c 0 -i 5 -a 0 -x {3.1 1.0 2 ------- null}
- -t 0.7032 -s 2 -d 1 -p ack -e 40 -c 0 -i 5 -a 0 -x {3.1 1.0 2 ------- null}
h -t 0.7032 -s 2 -d 1 -p ack -e 40 -c 0 -i 5 -a 0 -x {3.1 1.0 -1 ------- null}
r -t 0.7032 -s 2 -d 1 -p ack -e 40 -c 0 -i 4 -a 0 -x {3.1 1.0 1 ------- null}
+ -t 0.7032 -s 1 -d 2 -p tcp -e 1040 -c 0 -i 6 -a 0 -x {1.0 3.1 3 ------- null}
- -t 0.7032 -s 1 -d 2 -p tcp -e 1040 -c 0 -i 6 -a 0 -x {1.0 3.1 3 ------- null}
h -t 0.7032 -s 1 -d 2 -p tcp -e 1040 -c 0 -i 6 -a 0 -x {1.0 3.1 -1 ------- null}
+ -t 0.7032 -s 1 -d 2 -p tcp -e 1040 -c 0 -i 7 -a 0 -x {1.0 3.1 4 ------- null}
+ -t 0.707790344 -s 0 -d 2 -p tcp -e 40 -c 0 -i 8 -a 0 -x {0.0 3.0 0 ------- null}
- -t 0.707790344 -s 0 -d 2 -p tcp -e 40 -c 0 -i 8 -a 0 -x {0.0 3.0 0 ------- null}
h -t 0.707790344 -s 0 -d 2 -p tcp -e 40 -c 0 -i 8 -a 0 -x {0.0 3.0 -1 ------- null}
r -t 0.7136 -s 2 -d 1 -p ack -e 40 -c 0 -i 5 -a 0 -x {3.1 1.0 2 ------- null}
+ -t 0.7136 -s 1 -d 2 -p tcp -e 1040 -c 0 -i 9 -a 0 -x {1.0 3.1 5 ------- null}
+ -t 0.7136 -s 1 -d 2 -p tcp -e 1040 -c 0 -i 10 -a 0 -x {1.0 3.1 6 ------- null}
- -t 0.7136 -s 1 -d 2 -p tcp -e 1040 -c 0 -i 7 -a 0 -x {1.0 3.1 4 ------- null}
h -t 0.7136 -s 1 -d 2 -p tcp -e 1040 -c 0 -i 7 -a 0 -x {1.0 3.1 -1 ------- null}
r -t 0.718190344 -s 0 -d 2 -p tcp -e 40 -c 0 -i 8 -a 0 -x {0.0 3.0 0 ------- null}
+ -t 0.718190344 -s 2 -d 3 -p tcp -e 40 -c 0 -i 8 -a 0 -x {0.0 3.0 0 ------- null}
- -t 0.718190344 -s 2 -d 3 -p tcp -e 40 -c 0 -i 8 -a 0 -x {0.0 3.0 0 ------- null}
h -t 0.718190344 -s 2 -d 3 -p tcp -e 40 -c 0 -i 8 -a 0 -x {0.0 3.0 -1 ------- null}
r -t 0.7236 -s 1 -d 2 -p tcp -e 1040 -c 0 -i 6 -a 0 -x {1.0 3.1 3 ------- null}
+ -t 0.7236 -s 2 -d 3 -p tcp -e 1040 -c 0 -i 6 -a 0 -x {1.0 3.1 3 ------- null}
- -t 0.7236 -s 2 -d 3 -p tcp -e 1040 -c 0 -i 6 -a 0 -x {1.0 3.1 3 ------- null}
h -t 0.7236 -s 2 -d 3 -p tcp -e 1040 -c 0 -i 6 -a 0 -x {1.0 3.1 -1 ------- null}
- -t 0.724 -s 1 -d 2 -p tcp -e 1040 -c 0 -i 9 -a 0 -x {1.0 3.1 5 ------- null}
h -t 0.724 -s 1 -d 2 -p tcp -e 1040 -c 0 -i 9 -a 0 -x {1.0 3.1 -1 ------- null}
r -t 0.728590344 -s 2 -d 3 -p tcp -e 40 -c 0 -i 8 -a 0 -x {0.0 3.0 0 ------- null}
+ -t 0.728590344 -s 3 -d 2 -p ack -e 40 -c 0 -i 11 -a 0 -x {3.0 0.0 0 ------- null}
- -t 0.728590344 -s 3 -d 2 -p ack -e 40 -c 0 -i 11 -a 0 -x {3.0 0.0 0 ------- null}
h -t 0.728590344 -s 3 -d 2 -p ack -e 40 -c 0 -i 11 -a 0 -x {3.0 0.0 -1 ------- null}
r -t 0.734 -s 1 -d 2 -p tcp -e 1040 -c 0 -i 7 -a 0 -x {1.0 3.1 4 ------- null}
+ -t 0.734 -s 2 -d 3 -p tcp -e 1040 -c 0 -i 7 -a 0 -x {1.0 3.1 4 ------- null}
- -t 0.734 -s 2 -d 3 -p tcp -e 1040 -c 0 -i 7 -a 0 -x {1.0 3.1 4 ------- null}
h -t 0.734 -s 2 -d 3 -p tcp -e 1040 -c 0 -i 7 -a 0 -x {1.0 3.1 -1 ------- null}
- -t 0.7344 -s 1 -d 2 -p tcp -e 1040 -c 0 -i 10 -a 0 -x {1.0 3.1 6 ------- null}
h -t 0.7344 -s 1 -d 2 -p tcp -e 1040 -c 0 -i 10 -a 0 -x {1.0 3.1 -1 ------- null}
r -t 0.738990344 -s 3 -d 2 -p ack -e 40 -c 0 -i 11 -a 0 -x {3.0 0.0 0 ------- null}
+ -t 0.738990344 -s 2 -d 0 -p ack -e 40 -c 0 -i 11 -a 0 -x {3.0 0.0 0 ------- null}
- -t 0.738990344 -s 2 -d 0 -p ack -e 40 -c 0 -i 11 -a 0 -x {3.0 0.0 0 ------- null}
h -t 0.738990344 -s 2 -d 0 -p ack -e 40 -c 0 -i 11 -a 0 -x {3.0 0.0 -1 ------- null}
r -t 0.744 -s 2 -d 3 -p tcp -e 1040 -c 0 -i 6 -a 0 -x {1.0 3.1 3 ------- null}
+ -t 0.744 -s 3 -d 2 -p ack -e 40 -c 0 -i 12 -a 0 -x {3.1 1.0 3 ------- null}
- -t 0.744 -s 3 -d 2 -p ack -e 40 -c 0 -i 12 -a 0 -x {3.1 1.0 3 ------- null}
h -t 0.744 -s 3 -d 2 -p ack -e 40 -c 0 -i 12 -a 0 -x {3.1 1.0 -1 ------- null}
r -t 0.7444 -s 1 -d 2 -p tcp -e 1040 -c 0 -i 9 -a 0 -x {1.0 3.1 5 ------- null}
+ -t 0.7444 -s 2 -d 3 -p tcp -e 1040 -c 0 -i 9 -a 0 -x {1.0 3.1 5 ------- null}
- -t 0.7444 -s 2 -d 3 -p tcp -e 1040 -c 0 -i 9 -a 0 -x {1.0 3.1 5 ------- null}
h -t 0.7444 -s 2 -d 3 -p tcp -e 1040 -c 0 -i 9 -a 0 -x {1.0 3.1 -1 ------- null}
r -t 0.749390344 -s 2 -d 0 -p ack -e 40 -c 0 -i 11 -a 0 -x {3.0 0.0 0 ------- null}
+ -t 0.749390344 -s 0 -d 2 -p tcp -e 1040 -c 0 -i 13 -a 0 -x {0.0 3.0 1 ------- null}
- -t 0.749390344 -s 0 -d 2 -p tcp -e 1040 -c 0 -i 13 -a 0 -x {0.0 3.0 1 ------- null}
h -t 0.749390344 -s 0 -d 2 -p tcp -e 1040 -c 0 -i 13 -a 0 -x {0.0 3.0 -1 ------- null}
r -t 0.7544 -s 2 -d 3 -p tcp -e 1040 -c 0 -i 7 -a 0 -x {1.0 3.1 4 ------- null}
+ -t 0.7544 -s 3 -d 2 -p ack -e 40 -c 0 -i 14 -a 0 -x {3.1 1.0 4 ------- null}
- -t 0.7544 -s 3 -d 2 -p ack -e 40 -c 0 -i 14 -a 0 -x {3.1 1.0 4 ------- null}
h -t 0.7544 -s 3 -d 2 -p ack -e 40 -c 0 -i 14 -a 0 -x {3.1 1.0 -1 ------- null}
r -t 0.7544 -s 3 -d 2 -p ack -e 40 -c 0 -i 12 -a 0 -x {3.1 1.0 3 ------- null}
+ -t 0.7544 -s 2 -d 1 -p ack -e 40 -c 0 -i 12 -a 0 -x {3.1 1.0 3 ------- null}
- -t 0.7544 -s 2 -d 1 -p ack -e 40 -c 0 -i 12 -a 0 -x {3.1 1.0 3 ------- null}
h -t 0.7544 -s 2 -d 1 -p ack -e 40 -c 0 -i 12 -a 0 -x {3.1 1.0 -1 ------- null}
r -t 0.7548 -s 1 -d 2 -p tcp -e 1040 -c 0 -i 10 -a 0 -x {1.0 3.1 6 ------- null}
+ -t 0.7548 -s 2 -d 3 -p tcp -e 1040 -c 0 -i 10 -a 0 -x {1.0 3.1 6 ------- null}
- -t 0.7548 -s 2 -d 3 -p tcp -e 1040 -c 0 -i 10 -a 0 -x {1.0 3.1 6 ------- null}
h -t 0.7548 -s 2 -d 3 -p tcp -e 1040 -c 0 -i 10 -a 0 -x {1.0 3.1 -1 ------- null}
r -t 0.7648 -s 2 -d 3 -p tcp -e 1040 -c 0 -i 9 -a 0 -x {1.0 3.1 5 ------- null}
+ -t 0.7648 -s 3 -d 2 -p ack -e 40 -c 0 -i 15 -a 0 -x {3.1 1.0 5 ------- null}
- -t 0.7648 -s 3 -d 2 -p ack -e 40 -c 0 -i 15 -a 0 -x {3.1 1.0 5 ------- null}
h -t 0.7648 -s 3 -d 2 -p ack -e 40 -c 0 -i 15 -a 0 -x {3.1 1.0 -1 ------- null}
r -t 0.7648 -s 3 -d 2 -p ack -e 40 -c 0 -i 14 -a 0 -x {3.1 1.0 4 ------- null}
+ -t 0.7648 -s 2 -d 1 -p ack -e 40 -c 0 -i 14 -a 0 -x {3.1 1.0 4 ------- null}
- -t 0.7648 -s 2 -d 1 -p ack -e 40 -c 0 -i 14 -a 0 -x {3.1 1.0 4 ------- null}
h -t 0.7648 -s 2 -d 1 -p ack -e 40 -c 0 -i 14 -a 0 -x {3.1 1.0 -1 ------- null}
r -t 0.7648 -s 2 -d 1 -p ack -e 40 -c 0 -i 12 -a 0 -x {3.1 1.0 3 ------- null}
+ -t 0.7648 -s 1 -d 2 -p tcp -e 1040 -c 0 -i 16 -a 0 -x {1.0 3.1 7 ------- null}
- -t 0.7648 -s 1 -d 2 -p tcp -e 1040 -c 0 -i 16 -a 0 -x {1.0 3.1 7 ------- null}
h -t 0.7648 -s 1 -d 2 -p tcp -e 1040 -c 0 -i 16 -a 0 -x {1.0 3.1 -1 ------- null}
+ -t 0.7648 -s 1 -d 2 -p tcp -e 1040 -c 0 -i 17 -a 0 -x {1.0 3.1 8 ------- null}
r -t 0.769790344 -s 0 -d 2 -p tcp -e 1040 -c 0 -i 13 -a 0 -x {0.0 3.0 1 ------- null}
+ -t 0.769790344 -s 2 -d 3 -p tcp -e 1040 -c 0 -i 13 -a 0 -x {0.0 3.0 1 ------- null}
- -t 0.769790344 -s 2 -d 3 -p tcp -e 1040 -c 0 -i 13 -a 0 -x {0.0 3.0 1 ------- null}
h -t 0.769790344 -s 2 -d 3 -p tcp -e 1040 -c 0 -i 13 -a 0 -x {0.0 3.0 -1 ------- null}
r -t 0.7752 -s 2 -d 3 -p tcp -e 1040 -c 0 -i 10 -a 0 -x {1.0 3.1 6 ------- null}
+ -t 0.7752 -s 3 -d 2 -p ack -e 40 -c 0 -i 18 -a 0 -x {3.1 1.0 6 ------- null}
- -t 0.7752 -s 3 -d 2 -p ack -e 40 -c 0 -i 18 -a 0 -x {3.1 1.0 6 ------- null}
h -t 0.7752 -s 3 -d 2 -p ack -e 40 -c 0 -i 18 -a 0 -x {3.1 1.0 -1 ------- null}
r -t 0.7752 -s 3 -d 2 -p ack -e 40 -c 0 -i 15 -a 0 -x {3.1 1.0 5 ------- null}
+ -t 0.7752 -s 2 -d 1 -p ack -e 40 -c 0 -i 15 -a 0 -x {3.1 1.0 5 ------- null}
- -t 0.7752 -s 2 -d 1 -p ack -e 40 -c 0 -i 15 -a 0 -x {3.1 1.0 5 ------- null}
h -t 0.7752 -s 2 -d 1 -p ack -e 40 -c 0 -i 15 -a 0 -x {3.1 1.0 -1 ------- null}
r -t 0.7752 -s 2 -d 1 -p ack -e 40 -c 0 -i 14 -a 0 -x {3.1 1.0 4 ------- null}
+ -t 0.7752 -s 1 -d 2 -p tcp -e 1040 -c 0 -i 19 -a 0 -x {1.0 3.1 9 ------- null}
+ -t 0.7752 -s 1 -d 2 -p tcp -e 1040 -c 0 -i 20 -a 0 -x {1.0 3.1 10 ------- null}
- -t 0.7752 -s 1 -d 2 -p tcp -e 1040 -c 0 -i 17 -a 0 -x {1.0 3.1 8 ------- null}
h -t 0.7752 -s 1 -d 2 -p tcp -e 1040 -c 0 -i 17 -a 0 -x {1.0 3.1 -1 ------- null}
r -t 0.7852 -s 1 -d 2 -p tcp -e 1040 -c 0 -i 16 -a 0 -x {1.0 3.1 7 ------- null}
+ -t 0.7852 -s 2 -d 3 -p tcp -e 1040 -c 0 -i 16 -a 0 -x {1.0 3.1 7 ------- null}
- -t 0.7852 -s 2 -d 3 -p tcp -e 1040 -c 0 -i 16 -a 0 -x {1.0 3.1 7 ------- null}
h -t 0.7852 -s 2 -d 3 -p tcp -e 1040 -c 0 -i 16 -a 0 -x {1.0 3.1 -1 ------- null}
r -t 0.7856 -s 3 -d 2 -p ack -e 40 -c 0 -i 18 -a 0 -x {3.1 1.0 6 ------- null}
+ -t 0.7856 -s 2 -d 1 -p ack -e 40 -c 0 -i 18 -a 0 -x {3.1 1.0 6 ------- null}
- -t 0.7856 -s 2 -d 1 -p ack -e 40 -c 0 -i 18 -a 0 -x {3.1 1.0 6 ------- null}
h -t 0.7856 -s 2 -d 1 -p ack -e 40 -c 0 -i 18 -a 0 -x {3.1 1.0 -1 ------- null}
r -t 0.7856 -s 2 -d 1 -p ack -e 40 -c 0 -i 15 -a 0 -x {3.1 1.0 5 ------- null}
+ -t 0.7856 -s 1 -d 2 -p tcp -e 1040 -c 0 -i 21 -a 0 -x {1.0 3.1 11 ------- null}
+ -t 0.7856 -s 1 -d 2 -p tcp -e 1040 -c 0 -i 22 -a 0 -x {1.0 3.1 12 ------- null}
- -t 0.7856 -s 1 -d 2 -p tcp -e 1040 -c 0 -i 19 -a 0 -x {1.0 3.1 9 ------- null}
h -t 0.7856 -s 1 -d 2 -p tcp -e 1040 -c 0 -i 19 -a 0 -x {1.0 3.1 -1 ------- null}
r -t 0.790190344 -s 2 -d 3 -p tcp -e 1040 -c 0 -i 13 -a 0 -x {0.0 3.0 1 ------- null}
+ -t 0.790190344 -s 3 -d 2 -p ack -e 40 -c 0 -i 23 -a 0 -x {3.0 0.0 1 ------- null}
- -t 0.790190344 -s 3 -d 2 -p ack -e 40 -c 0 -i 23 -a 0 -x {3.0 0.0 1 ------- null}
h -t 0.790190344 -s 3 -d 2 -p ack -e 40 -c 0 -i 23 -a 0 -x {3.0 0.0 -1 ------- null}
r -t 0.7956 -s 1 -d 2 -p tcp -e 1040 -c 0 -i 17 -a 0 -x {1.0 3.1 8 ------- null}
+ -t 0.7956 -s 2 -d 3 -p tcp -e 1040 -c 0 -i 17 -a 0 -x {1.0 3.1 8 ------- null}
- -t 0.7956 -s 2 -d 3 -p tcp -e 1040 -c 0 -i 17 -a 0 -x {1.0 3.1 8 ------- null}
h -t 0.7956 -s 2 -d 3 -p tcp -e 1040 -c 0 -i 17 -a 0 -x {1.0 3.1 -1 ------- null}
r -t 0.795999999999999 -s 2 -d 1 -p ack -e 40 -c 0 -i 18 -a 0 -x {3.1 1.0 6 ------- null}
+ -t 0.795999999999999 -s 1 -d 2 -p tcp -e 1040 -c 0 -i 24 -a 0 -x {1.0 3.1 13 ------- null}
+ -t 0.795999999999999 -s 1 -d 2 -p tcp -e 1040 -c 0 -i 25 -a 0 -x {1.0 3.1 14 ------- null}
- -t 0.795999999999999 -s 1 -d 2 -p tcp -e 1040 -c 0 -i 20 -a 0 -x {1.0 3.1 10 ------- null}
h -t 0.795999999999999 -s 1 -d 2 -p tcp -e 1040 -c 0 -i 20 -a 0 -x {1.0 3.1 -1 ------- null}
r -t 0.800590344 -s 3 -d 2 -p ack -e 40 -c 0 -i 23 -a 0 -x {3.0 0.0 1 ------- null}
+ -t 0.800590344 -s 2 -d 0 -p ack -e 40 -c 0 -i 23 -a 0 -x {3.0 0.0 1 ------- null}
- -t 0.800590344 -s 2 -d 0 -p ack -e 40 -c 0 -i 23 -a 0 -x {3.0 0.0 1 ------- null}
h -t 0.800590344 -s 2 -d 0 -p ack -e 40 -c 0 -i 23 -a 0 -x {3.0 0.0 -1 ------- null}
r -t 0.8056 -s 2 -d 3 -p tcp -e 1040 -c 0 -i 16 -a 0 -x {1.0 3.1 7 ------- null}
+ -t 0.8056 -s 3 -d 2 -p ack -e 40 -c 0 -i 26 -a 0 -x {3.1 1.0 7 ------- null}
- -t 0.8056 -s 3 -d 2 -p ack -e 40 -c 0 -i 26 -a 0 -x {3.1 1.0 7 ------- null}
h -t 0.8056 -s 3 -d 2 -p ack -e 40 -c 0 -i 26 -a 0 -x {3.1 1.0 -1 ------- null}
r -t 0.805999999999999 -s 1 -d 2 -p tcp -e 1040 -c 0 -i 19 -a 0 -x {1.0 3.1 9 ------- null}
+ -t 0.805999999999999 -s 2 -d 3 -p tcp -e 1040 -c 0 -i 19 -a 0 -x {1.0 3.1 9 ------- null}
- -t 0.805999999999999 -s 2 -d 3 -p tcp -e 1040 -c 0 -i 19 -a 0 -x {1.0 3.1 9 ------- null}
h -t 0.805999999999999 -s 2 -d 3 -p tcp -e 1040 -c 0 -i 19 -a 0 -x {1.0 3.1 -1 ------- null}
- -t 0.806399999999999 -s 1 -d 2 -p tcp -e 1040 -c 0 -i 21 -a 0 -x {1.0 3.1 11 ------- null}
h -t 0.806399999999999 -s 1 -d 2 -p tcp -e 1040 -c 0 -i 21 -a 0 -x {1.0 3.1 -1 ------- null}
r -t 0.810990344 -s 2 -d 0 -p ack -e 40 -c 0 -i 23 -a 0 -x {3.0 0.0 1 ------- null}
r -t 0.816 -s 2 -d 3 -p tcp -e 1040 -c 0 -i 17 -a 0 -x {1.0 3.1 8 ------- null}
+ -t 0.816 -s 3 -d 2 -p ack -e 40 -c 0 -i 27 -a 0 -x {3.1 1.0 8 ------- null}
- -t 0.816 -s 3 -d 2 -p ack -e 40 -c 0 -i 27 -a 0 -x {3.1 1.0 8 ------- null}
h -t 0.816 -s 3 -d 2 -p ack -e 40 -c 0 -i 27 -a 0 -x {3.1 1.0 -1 ------- null}
r -t 0.816 -s 3 -d 2 -p ack -e 40 -c 0 -i 26 -a 0 -x {3.1 1.0 7 ------- null}
+ -t 0.816 -s 2 -d 1 -p ack -e 40 -c 0 -i 26 -a 0 -x {3.1 1.0 7 ------- null}
- -t 0.816 -s 2 -d 1 -p ack -e 40 -c 0 -i 26 -a 0 -x {3.1 1.0 7 ------- null}
h -t 0.816 -s 2 -d 1 -p ack -e 40 -c 0 -i 26 -a 0 -x {3.1 1.0 -1 ------- null}
r -t 0.816399999999999 -s 1 -d 2 -p tcp -e 1040 -c 0 -i 20 -a 0 -x {1.0 3.1 10 ------- null}
+ -t 0.816399999999999 -s 2 -d 3 -p tcp -e 1040 -c 0 -i 20 -a 0 -x {1.0 3.1 10 ------- null}
- -t 0.816399999999999 -s 2 -d 3 -p tcp -e 1040 -c 0 -i 20 -a 0 -x {1.0 3.1 10 ------- null}
h -t 0.816399999999999 -s 2 -d 3 -p tcp -e 1040 -c 0 -i 20 -a 0 -x {1.0 3.1 -1 ------- null}
- -t 0.816799999999999 -s 1 -d 2 -p tcp -e 1040 -c 0 -i 22 -a 0 -x {1.0 3.1 12 ------- null}
h -t 0.816799999999999 -s 1 -d 2 -p tcp -e 1040 -c 0 -i 22 -a 0 -x {1.0 3.1 -1 ------- null}
r -t 0.826399999999999 -s 2 -d 3 -p tcp -e 1040 -c 0 -i 19 -a 0 -x {1.0 3.1 9 ------- null}
+ -t 0.826399999999999 -s 3 -d 2 -p ack -e 40 -c 0 -i 28 -a 0 -x {3.1 1.0 9 ------- null}
- -t 0.826399999999999 -s 3 -d 2 -p ack -e 40 -c 0 -i 28 -a 0 -x {3.1 1.0 9 ------- null}
h -t 0.826399999999999 -s 3 -d 2 -p ack -e 40 -c 0 -i 28 -a 0 -x {3.1 1.0 -1 ------- null}
r -t 0.826399999999999 -s 3 -d 2 -p ack -e 40 -c 0 -i 27 -a 0 -x {3.1 1.0 8 ------- null}
+ -t 0.826399999999999 -s 2 -d 1 -p ack -e 40 -c 0 -i 27 -a 0 -x {3.1 1.0 8 ------- null}
- -t 0.826399999999999 -s 2 -d 1 -p ack -e 40 -c 0 -i 27 -a 0 -x {3.1 1.0 8 ------- null}
h -t 0.826399999999999 -s 2 -d 1 -p ack -e 40 -c 0 -i 27 -a 0 -x {3.1 1.0 -1 ------- null}
r -t 0.826399999999999 -s 2 -d 1 -p ack -e 40 -c 0 -i 26 -a 0 -x {3.1 1.0 7 ------- null}
+ -t 0.826399999999999 -s 1 -d 2 -p tcp -e 1040 -c 0 -i 29 -a 0 -x {1.0 3.1 15 ------- null}
+ -t 0.826399999999999 -s 1 -d 2 -p tcp -e 1040 -c 0 -i 30 -a 0 -x {1.0 3.1 16 ------- null}
r -t 0.826799999999999 -s 1 -d 2 -p tcp -e 1040 -c 0 -i 21 -a 0 -x {1.0 3.1 11 ------- null}
+ -t 0.826799999999999 -s 2 -d 3 -p tcp -e 1040 -c 0 -i 21 -a 0 -x {1.0 3.1 11 ------- null}
- -t 0.826799999999999 -s 2 -d 3 -p tcp -e 1040 -c 0 -i 21 -a 0 -x {1.0 3.1 11 ------- null}
h -t 0.826799999999999 -s 2 -d 3 -p tcp -e 1040 -c 0 -i 21 -a 0 -x {1.0 3.1 -1 ------- null}
- -t 0.827199999999999 -s 1 -d 2 -p tcp -e 1040 -c 0 -i 24 -a 0 -x {1.0 3.1 13 ------- null}
h -t 0.827199999999999 -s 1 -d 2 -p tcp -e 1040 -c 0 -i 24 -a 0 -x {1.0 3.1 -1 ------- null}
r -t 0.836799999999999 -s 2 -d 3 -p tcp -e 1040 -c 0 -i 20 -a 0 -x {1.0 3.1 10 ------- null}
+ -t 0.836799999999999 -s 3 -d 2 -p ack -e 40 -c 0 -i 31 -a 0 -x {3.1 1.0 10 ------- null}
- -t 0.836799999999999 -s 3 -d 2 -p ack -e 40 -c 0 -i 31 -a 0 -x {3.1 1.0 10 ------- null}
h -t 0.836799999999999 -s 3 -d 2 -p ack -e 40 -c 0 -i 31 -a 0 -x {3.1 1.0 -1 ------- null}
r -t 0.836799999999999 -s 3 -d 2 -p ack -e 40 -c 0 -i 28 -a 0 -x {3.1 1.0 9 ------- null}
+ -t 0.836799999999999 -s 2 -d 1 -p ack -e 40 -c 0 -i 28 -a 0 -x {3.1 1.0 9 ------- null}
- -t 0.836799999999999 -s 2 -d 1 -p ack -e 40 -c 0 -i 28 -a 0 -x {3.1 1.0 9 ------- null}
h -t 0.836799999999999 -s 2 -d 1 -p ack -e 40 -c 0 -i 28 -a 0 -x {3.1 1.0 -1 ------- null}
r -t 0.836799999999999 -s 2 -d 1 -p ack -e 40 -c 0 -i 27 -a 0 -x {3.1 1.0 8 ------- null}
+ -t 0.836799999999999 -s 1 -d 2 -p tcp -e 1040 -c 0 -i 32 -a 0 -x {1.0 3.1 17 ------- null}
+ -t 0.836799999999999 -s 1 -d 2 -p tcp -e 1040 -c 0 -i 33 -a 0 -x {1.0 3.1 18 ------- null}
r -t 0.837199999999999 -s 1 -d 2 -p tcp -e 1040 -c 0 -i 22 -a 0 -x {1.0 3.1 12 ------- null}
+ -t 0.837199999999999 -s 2 -d 3 -p tcp -e 1040 -c 0 -i 22 -a 0 -x {1.0 3.1 12 ------- null}
- -t 0.837199999999999 -s 2 -d 3 -p tcp -e 1040 -c 0 -i 22 -a 0 -x {1.0 3.1 12 ------- null}
h -t 0.837199999999999 -s 2 -d 3 -p tcp -e 1040 -c 0 -i 22 -a 0 -x {1.0 3.1 -1 ------- null}
- -t 0.837599999999999 -s 1 -d 2 -p tcp -e 1040 -c 0 -i 25 -a 0 -x {1.0 3.1 14 ------- null}
h -t 0.837599999999999 -s 1 -d 2 -p tcp -e 1040 -c 0 -i 25 -a 0 -x {1.0 3.1 -1 ------- null}
r -t 0.847199999999999 -s 2 -d 3 -p tcp -e 1040 -c 0 -i 21 -a 0 -x {1.0 3.1 11 ------- null}
+ -t 0.847199999999999 -s 3 -d 2 -p ack -e 40 -c 0 -i 34 -a 0 -x {3.1 1.0 11 ------- null}
- -t 0.847199999999999 -s 3 -d 2 -p ack -e 40 -c 0 -i 34 -a 0 -x {3.1 1.0 11 ------- null}
h -t 0.847199999999999 -s 3 -d 2 -p ack -e 40 -c 0 -i 34 -a 0 -x {3.1 1.0 -1 ------- null}
r -t 0.847199999999999 -s 3 -d 2 -p ack -e 40 -c 0 -i 31 -a 0 -x {3.1 1.0 10 ------- null}
+ -t 0.847199999999999 -s 2 -d 1 -p ack -e 40 -c 0 -i 31 -a 0 -x {3.1 1.0 10 ------- null}
- -t 0.847199999999999 -s 2 -d 1 -p ack -e 40 -c 0 -i 31 -a 0 -x {3.1 1.0 10 ------- null}
h -t 0.847199999999999 -s 2 -d 1 -p ack -e 40 -c 0 -i 31 -a 0 -x {3.1 1.0 -1 ------- null}
r -t 0.847199999999999 -s 2 -d 1 -p ack -e 40 -c 0 -i 28 -a 0 -x {3.1 1.0 9 ------- null}
+ -t 0.847199999999999 -s 1 -d 2 -p tcp -e 1040 -c 0 -i 35 -a 0 -x {1.0 3.1 19 ------- null}
+ -t 0.847199999999999 -s 1 -d 2 -p tcp -e 1040 -c 0 -i 36 -a 0 -x {1.0 3.1 20 ------- null}
r -t 0.847599999999999 -s 1 -d 2 -p tcp -e 1040 -c 0 -i 24 -a 0 -x {1.0 3.1 13 ------- null}
+ -t 0.847599999999999 -s 2 -d 3 -p tcp -e 1040 -c 0 -i 24 -a 0 -x {1.0 3.1 13 ------- null}
- -t 0.847599999999999 -s 2 -d 3 -p tcp -e 1040 -c 0 -i 24 -a 0 -x {1.0 3.1 13 ------- null}
h -t 0.847599999999999 -s 2 -d 3 -p tcp -e 1040 -c 0 -i 24 -a 0 -x {1.0 3.1 -1 ------- null}
- -t 0.847999999999999 -s 1 -d 2 -p tcp -e 1040 -c 0 -i 29 -a 0 -x {1.0 3.1 15 ------- null}
h -t 0.847999999999999 -s 1 -d 2 -p tcp -e 1040 -c 0 -i 29 -a 0 -x {1.0 3.1 -1 ------- null}
r -t 0.857599999999999 -s 2 -d 3 -p tcp -e 1040 -c 0 -i 22 -a 0 -x {1.0 3.1 12 ------- null}
+ -t 0.857599999999999 -s 3 -d 2 -p ack -e 40 -c 0 -i 37 -a 0 -x {3.1 1.0 12 ------- null}
- -t 0.857599999999999 -s 3 -d 2 -p ack -e 40 -c 0 -i 37 -a 0 -x {3.1 1.0 12 ------- null}
h -t 0.857599999999999 -s 3 -d 2 -p ack -e 40 -c 0 -i 37 -a 0 -x {3.1 1.0 -1 ------- null}
r -t 0.857599999999999 -s 3 -d 2 -p ack -e 40 -c 0 -i 34 -a 0 -x {3.1 1.0 11 ------- null}
+ -t 0.857599999999999 -s 2 -d 1 -p ack -e 40 -c 0 -i 34 -a 0 -x {3.1 1.0 11 ------- null}
- -t 0.857599999999999 -s 2 -d 1 -p ack -e 40 -c 0 -i 34 -a 0 -x {3.1 1.0 11 ------- null}
h -t 0.857599999999999 -s 2 -d 1 -p ack -e 40 -c 0 -i 34 -a 0 -x {3.1 1.0 -1 ------- null}
r -t 0.857599999999999 -s 2 -d 1 -p ack -e 40 -c 0 -i 31 -a 0 -x {3.1 1.0 10 ------- null}
+ -t 0.857599999999999 -s 1 -d 2 -p tcp -e 1040 -c 0 -i 38 -a 0 -x {1.0 3.1 21 ------- null}
+ -t 0.857599999999999 -s 1 -d 2 -p tcp -e 1040 -c 0 -i 39 -a 0 -x {1.0 3.1 22 ------- null}
r -t 0.857999999999999 -s 1 -d 2 -p tcp -e 1040 -c 0 -i 25 -a 0 -x {1.0 3.1 14 ------- null}
+ -t 0.857999999999999 -s 2 -d 3 -p tcp -e 1040 -c 0 -i 25 -a 0 -x {1.0 3.1 14 ------- null}
- -t 0.857999999999999 -s 2 -d 3 -p tcp -e 1040 -c 0 -i 25 -a 0 -x {1.0 3.1 14 ------- null}
h -t 0.857999999999999 -s 2 -d 3 -p tcp -e 1040 -c 0 -i 25 -a 0 -x {1.0 3.1 -1 ------- null}
- -t 0.858399999999999 -s 1 -d 2 -p tcp -e 1040 -c 0 -i 30 -a 0 -x {1.0 3.1 16 ------- null}
h -t 0.858399999999999 -s 1 -d 2 -p tcp -e 1040 -c 0 -i 30 -a 0 -x {1.0 3.1 -1 ------- null}
r -t 0.867999999999999 -s 2 -d 3 -p tcp -e 1040 -c 0 -i 24 -a 0 -x {1.0 3.1 13 ------- null}
+ -t 0.867999999999999 -s 3 -d 2 -p ack -e 40 -c 0 -i 40 -a 0 -x {3.1 1.0 13 ------- null}
- -t 0.867999999999999 -s 3 -d 2 -p ack -e 40 -c 0 -i 40 -a 0 -x {3.1 1.0 13 ------- null}
h -t 0.867999999999999 -s 3 -d 2 -p ack -e 40 -c 0 -i 40 -a 0 -x {3.1 1.0 -1 ------- null}
r -t 0.867999999999999 -s 3 -d 2 -p ack -e 40 -c 0 -i 37 -a 0 -x {3.1 1.0 12 ------- null}
+ -t 0.867999999999999 -s 2 -d 1 -p ack -e 40 -c 0 -i 37 -a 0 -x {3.1 1.0 12 ------- null}
- -t 0.867999999999999 -s 2 -d 1 -p ack -e 40 -c 0 -i 37 -a 0 -x {3.1 1.0 12 ------- null}
h -t 0.867999999999999 -s 2 -d 1 -p ack -e 40 -c 0 -i 37 -a 0 -x {3.1 1.0 -1 ------- null}
r -t 0.867999999999999 -s 2 -d 1 -p ack -e 40 -c 0 -i 34 -a 0 -x {3.1 1.0 11 ------- null}
+ -t 0.867999999999999 -s 1 -d 2 -p tcp -e 1040 -c 0 -i 41 -a 0 -x {1.0 3.1 23 ------- null}
+ -t 0.867999999999999 -s 1 -d 2 -p tcp -e 1040 -c 0 -i 42 -a 0 -x {1.0 3.1 24 ------- null}
r -t 0.868399999999999 -s 1 -d 2 -p tcp -e 1040 -c 0 -i 29 -a 0 -x {1.0 3.1 15 ------- null}
+ -t 0.868399999999999 -s 2 -d 3 -p tcp -e 1040 -c 0 -i 29 -a 0 -x {1.0 3.1 15 ------- null}
- -t 0.868399999999999 -s 2 -d 3 -p tcp -e 1040 -c 0 -i 29 -a 0 -x {1.0 3.1 15 ------- null}
h -t 0.868399999999999 -s 2 -d 3 -p tcp -e 1040 -c 0 -i 29 -a 0 -x {1.0 3.1 -1 ------- null}
- -t 0.868799999999999 -s 1 -d 2 -p tcp -e 1040 -c 0 -i 32 -a 0 -x {1.0 3.1 17 ------- null}
h -t 0.868799999999999 -s 1 -d 2 -p tcp -e 1040 -c 0 -i 32 -a 0 -x {1.0 3.1 -1 ------- null}
r -t 0.878399999999999 -s 2 -d 3 -p tcp -e 1040 -c 0 -i 25 -a 0 -x {1.0 3.1 14 ------- null}
+ -t 0.878399999999999 -s 3 -d 2 -p ack -e 40 -c 0 -i 43 -a 0 -x {3.1 1.0 14 ------- null}
- -t 0.878399999999999 -s 3 -d 2 -p ack -e 40 -c 0 -i 43 -a 0 -x {3.1 1.0 14 ------- null}
h -t 0.878399999999999 -s 3 -d 2 -p ack -e 40 -c 0 -i 43 -a 0 -x {3.1 1.0 -1 ------- null}
r -t 0.878399999999999 -s 3 -d 2 -p ack -e 40 -c 0 -i 40 -a 0 -x {3.1 1.0 13 ------- null}
+ -t 0.878399999999999 -s 2 -d 1 -p ack -e 40 -c 0 -i 40 -a 0 -x {3.1 1.0 13 ------- null}
- -t 0.878399999999999 -s 2 -d 1 -p ack -e 40 -c 0 -i 40 -a 0 -x {3.1 1.0 13 ------- null}
h -t 0.878399999999999 -s 2 -d 1 -p ack -e 40 -c 0 -i 40 -a 0 -x {3.1 1.0 -1 ------- null}
r -t 0.878399999999999 -s 2 -d 1 -p ack -e 40 -c 0 -i 37 -a 0 -x {3.1 1.0 12 ------- null}
+ -t 0.878399999999999 -s 1 -d 2 -p tcp -e 1040 -c 0 -i 44 -a 0 -x {1.0 3.1 25 ------- null}
+ -t 0.878399999999999 -s 1 -d 2 -p tcp -e 1040 -c 0 -i 45 -a 0 -x {1.0 3.1 26 ------- null}
r -t 0.878799999999999 -s 1 -d 2 -p tcp -e 1040 -c 0 -i 30 -a 0 -x {1.0 3.1 16 ------- null}
+ -t 0.878799999999999 -s 2 -d 3 -p tcp -e 1040 -c 0 -i 30 -a 0 -x {1.0 3.1 16 ------- null}
- -t 0.878799999999999 -s 2 -d 3 -p tcp -e 1040 -c 0 -i 30 -a 0 -x {1.0 3.1 16 ------- null}
h -t 0.878799999999999 -s 2 -d 3 -p tcp -e 1040 -c 0 -i 30 -a 0 -x {1.0 3.1 -1 ------- null}
- -t 0.879199999999999 -s 1 -d 2 -p tcp -e 1040 -c 0 -i 33 -a 0 -x {1.0 3.1 18 ------- null}
h -t 0.879199999999999 -s 1 -d 2 -p tcp -e 1040 -c 0 -i 33 -a 0 -x {1.0 3.1 -1 ------- null}
r -t 0.888799999999999 -s 2 -d 3 -p tcp -e 1040 -c 0 -i 29 -a 0 -x {1.0 3.1 15 ------- null}
+ -t 0.888799999999999 -s 3 -d 2 -p ack -e 40 -c 0 -i 46 -a 0 -x {3.1 1.0 15 ------- null}
- -t 0.888799999999999 -s 3 -d 2 -p ack -e 40 -c 0 -i 46 -a 0 -x {3.1 1.0 15 ------- null}
h -t 0.888799999999999 -s 3 -d 2 -p ack -e 40 -c 0 -i 46 -a 0 -x {3.1 1.0 -1 ------- null}
r -t 0.888799999999999 -s 3 -d 2 -p ack -e 40 -c 0 -i 43 -a 0 -x {3.1 1.0 14 ------- null}
+ -t 0.888799999999999 -s 2 -d 1 -p ack -e 40 -c 0 -i 43 -a 0 -x {3.1 1.0 14 ------- null}
- -t 0.888799999999999 -s 2 -d 1 -p ack -e 40 -c 0 -i 43 -a 0 -x {3.1 1.0 14 ------- null}
h -t 0.888799999999999 -s 2 -d 1 -p ack -e 40 -c 0 -i 43 -a 0 -x {3.1 1.0 -1 ------- null}
r -t 0.888799999999999 -s 2 -d 1 -p ack -e 40 -c 0 -i 40 -a 0 -x {3.1 1.0 13 ------- null}
+ -t 0.888799999999999 -s 1 -d 2 -p tcp -e 1040 -c 0 -i 47 -a 0 -x {1.0 3.1 27 ------- null}
+ -t 0.888799999999999 -s 1 -d 2 -p tcp -e 1040 -c 0 -i 48 -a 0 -x {1.0 3.1 28 ------- null}
r -t 0.889199999999999 -s 1 -d 2 -p tcp -e 1040 -c 0 -i 32 -a 0 -x {1.0 3.1 17 ------- null}
+ -t 0.889199999999999 -s 2 -d 3 -p tcp -e 1040 -c 0 -i 32 -a 0 -x {1.0 3.1 17 ------- null}
- -t 0.889199999999999 -s 2 -d 3 -p tcp -e 1040 -c 0 -i 32 -a 0 -x {1.0 3.1 17 ------- null}
h -t 0.889199999999999 -s 2 -d 3 -p tcp -e 1040 -c 0 -i 32 -a 0 -x {1.0 3.1 -1 ------- null}
- -t 0.889599999999999 -s 1 -d 2 -p tcp -e 1040 -c 0 -i 35 -a 0 -x {1.0 3.1 19 ------- null}
h -t 0.889599999999999 -s 1 -d 2 -p tcp -e 1040 -c 0 -i 35 -a 0 -x {1.0 3.1 -1 ------- null}
r -t 0.899199999999999 -s 2 -d 3 -p tcp -e 1040 -c 0 -i 30 -a 0 -x {1.0 3.1 16 ------- null}
+ -t 0.899199999999999 -s 3 -d 2 -p ack -e 40 -c 0 -i 49 -a 0 -x {3.1 1.0 16 ------- null}
- -t 0.899199999999999 -s 3 -d 2 -p ack -e 40 -c 0 -i 49 -a 0 -x {3.1 1.0 16 ------- null}
h -t 0.899199999999999 -s 3 -d 2 -p ack -e 40 -c 0 -i 49 -a 0 -x {3.1 1.0 -1 ------- null}
r -t 0.899199999999999 -s 3 -d 2 -p ack -e 40 -c 0 -i 46 -a 0 -x {3.1 1.0 15 ------- null}
+ -t 0.899199999999999 -s 2 -d 1 -p ack -e 40 -c 0 -i 46 -a 0 -x {3.1 1.0 15 ------- null}
- -t 0.899199999999999 -s 2 -d 1 -p ack -e 40 -c 0 -i 46 -a 0 -x {3.1 1.0 15 ------- null}
h -t 0.899199999999999 -s 2 -d 1 -p ack -e 40 -c 0 -i 46 -a 0 -x {3.1 1.0 -1 ------- null}
r -t 0.899199999999999 -s 2 -d 1 -p ack -e 40 -c 0 -i 43 -a 0 -x {3.1 1.0 14 ------- null}
+ -t 0.899199999999999 -s 1 -d 2 -p tcp -e 1040 -c 0 -i 50 -a 0 -x {1.0 3.1 29 ------- null}
+ -t 0.899199999999999 -s 1 -d 2 -p tcp -e 1040 -c 0 -i 51 -a 0 -x {1.0 3.1 30 ------- null}
r -t 0.899599999999999 -s 1 -d 2 -p tcp -e 1040 -c 0 -i 33 -a 0 -x {1.0 3.1 18 ------- null}
+ -t 0.899599999999999 -s 2 -d 3 -p tcp -e 1040 -c 0 -i 33 -a 0 -x {1.0 3.1 18 ------- null}
- -t 0.899599999999999 -s 2 -d 3 -p tcp -e 1040 -c 0 -i 33 -a 0 -x {1.0 3.1 18 ------- null}
h -t 0.899599999999999 -s 2 -d 3 -p tcp -e 1040 -c 0 -i 33 -a 0 -x {1.0 3.1 -1 ------- null}
- -t 0.899999999999999 -s 1 -d 2 -p tcp -e 1040 -c 0 -i 36 -a 0 -x {1.0 3.1 20 ------- null}
h -t 0.899999999999999 -s 1 -d 2 -p tcp -e 1040 -c 0 -i 36 -a 0 -x {1.0 3.1 -1 ------- null}
r -t 0.909599999999999 -s 2 -d 3 -p tcp -e 1040 -c 0 -i 32 -a 0 -x {1.0 3.1 17 ------- null}
+ -t 0.909599999999999 -s 3 -d 2 -p ack -e 40 -c 0 -i 52 -a 0 -x {3.1 1.0 17 ------- null}
- -t 0.909599999999999 -s 3 -d 2 -p ack -e 40 -c 0 -i 52 -a 0 -x {3.1 1.0 17 ------- null}
h -t 0.909599999999999 -s 3 -d 2 -p ack -e 40 -c 0 -i 52 -a 0 -x {3.1 1.0 -1 ------- null}
r -t 0.909599999999999 -s 3 -d 2 -p ack -e 40 -c 0 -i 49 -a 0 -x {3.1 1.0 16 ------- null}
+ -t 0.909599999999999 -s 2 -d 1 -p ack -e 40 -c 0 -i 49 -a 0 -x {3.1 1.0 16 ------- null}
- -t 0.909599999999999 -s 2 -d 1 -p ack -e 40 -c 0 -i 49 -a 0 -x {3.1 1.0 16 ------- null}
h -t 0.909599999999999 -s 2 -d 1 -p ack -e 40 -c 0 -i 49 -a 0 -x {3.1 1.0 -1 ------- null}
r -t 0.909599999999999 -s 2 -d 1 -p ack -e 40 -c 0 -i 46 -a 0 -x {3.1 1.0 15 ------- null}
+ -t 0.909599999999999 -s 1 -d 2 -p tcp -e 1040 -c 0 -i 53 -a 0 -x {1.0 3.1 31 ------- null}
+ -t 0.909599999999999 -s 1 -d 2 -p tcp -e 1040 -c 0 -i 54 -a 0 -x {1.0 3.1 32 ------- null}
r -t 0.909999999999999 -s 1 -d 2 -p tcp -e 1040 -c 0 -i 35 -a 0 -x {1.0 3.1 19 ------- null}
+ -t 0.909999999999999 -s 2 -d 3 -p tcp -e 1040 -c 0 -i 35 -a 0 -x {1.0 3.1 19 ------- null}
- -t 0.909999999999999 -s 2 -d 3 -p tcp -e 1040 -c 0 -i 35 -a 0 -x {1.0 3.1 19 ------- null}
h -t 0.909999999999999 -s 2 -d 3 -p tcp -e 1040 -c 0 -i 35 -a 0 -x {1.0 3.1 -1 ------- null}