+ 0.6 1 2 tcp 40 ------- 0 1.0 3.1 0 0
- 0.6 1 2 tcp 40 ------- 0 1.0 3.1 0 0
r 0.6104 1 2 tcp 40 ------- 0 1.0 3.1 0 0
+ 0.6104 2 3 tcp 40 ------- 0 1.0 3.1 0 0
- 0.6104 2 3 tcp 40 ------- 0 1.0 3.1 0 0
r 0.6208 2 3 tcp 40 ------- 0 1.0 3.1 0 0
+ 0.6208 3 2 ack 40 ------- 0 3.1 1.0 0 1
- 0.6208 3 2 ack 40 ------- 0 3.1 1.0 0 1
r 0.6312 3 2 ack 40 ------- 0 3.1 1.0 0 1
+ 0.6312 2 1 ack 40 ------- 0 3.1 1.0 0 1
- 0.6312 2 1 ack 40 ------- 0 3.1 1.0 0 1
r 0.6416 2 1 ack 40 ------- 0 3.1 1.0 0 1
+ 0.6416 1 2 tcp 1040 ------- 0 1.0 3.1 1 2
- 0.6416 1 2 tcp 1040 ------- 0 1.0 3.1 1 2
+ 0.6416 1 2 tcp 1040 ------- 0 1.0 3.1 2 3
- 0.652 1 2 tcp 1040 ------- 0 1.0 3.1 2 3
r 0.662 1 2 tcp 1040 ------- 0 1.0 3.1 1 2
+ 0.662 2 3 tcp 1040 ------- 0 1.0 3.1 1 2
- 0.662 2 3 tcp 1040 ------- 0 1.0 3.1 1 2
r 0.6724 1 2 tcp 1040 ------- 0 1.0 3.1 2 3
+ 0.6724 2 3 tcp 1040 ------- 0 1.0 3.1 2 3
- 0.6724 2 3 tcp 1040 ------- 0 1.0 3.1 2 3
r 0.6824 2 3 tcp 1040 ------- 0 1.0 3.1 1 2
+ 0.6824 3 2 ack 40 ------- 0 3.1 1.0 1 4
- 0.6824 3 2 ack 40 ------- 0 3.1 1.0 1 4
r 0.6928 2 3 tcp 1040 ------- 0 1.0 3.1 2 3
+ 0.6928 3 2 ack 40 ------- 0 3.1 1.0 2 5
- 0.6928 3 2 ack 40 ------- 0 3.1 1.0 2 5
r 0.6928 3 2 ack 40 ------- 0 3.1 1.0 1 4
+ 0.6928 2 1 ack 40 ------- 0 3.1 1.0 1 4
- 0.6928 2 1 ack 40 ------- 0 3.1 1.0 1 4
r 0.7032 3 2 ack 40 ------- 0 3.1 1.0 2 5
+ 0.7032 2 1 ack 40 ------- 0 3.1 1.0 2 5
- 0.7032 2 1 ack 40 ------- 0 3.1 1.0 2 5
r 0.7032 2 1 ack 40 ------- 0 3.1 1.0 1 4
+ 0.7032 1 2 tcp 1040 ------- 0 1.0 3.1 3 6
- 0.7032 1 2 tcp 1040 ------- 0 1.0 3.1 3 6
+ 0.7032 1 2 tcp 1040 ------- 0 1.0 3.1 4 7
+ 0.70779 0 2 tcp 40 ------- 0 0.0 3.0 0 8
- 0.70779 0 2 tcp 40 ------- 0 0.0 3.0 0 8
r 0.7136 2 1 ack 40 ------- 0 3.1 1.0 2 5
+ 0.7136 1 2 tcp 1040 ------- 0 1.0 3.1 5 9
+ 0.7136 1 2 tcp 1040 ------- 0 1.0 3.1 6 10
- 0.7136 1 2 tcp 1040 ------- 0 1.0 3.1 4 7
r 0.71819 0 2 tcp 40 ------- 0 0.0 3.0 0 8
+ 0.71819 2 3 tcp 40 ------- 0 0.0 3.0 0 8
- 0.71819 2 3 tcp 40 ------- 0 0.0 3.0 0 8
r 0.7236 1 2 tcp 1040 ------- 0 1.0 3.1 3 6
+ 0.7236 2 3 tcp 1040 ------- 0 1.0 3.1 3 6
- 0.7236 2 3 tcp 1040 ------- 0 1.0 3.1 3 6
- 0.724 1 2 tcp 1040 ------- 0 1.0 3.1 5 9
r 0.72859 2 3 tcp 40 ------- 0 0.0 3.0 0 8
+ 0.72859 3 2 ack 40 ------- 0 3.0 0.0 0 11
- 0.72859 3 2 ack 40 ------- 0 3.0 0.0 0 11
r 0.734 1 2 tcp 1040 ------- 0 1.0 3.1 4 7
+ 0.734 2 3 tcp 1040 ------- 0 1.0 3.1 4 7
- 0.734 2 3 tcp 1040 ------- 0 1.0 3.1 4 7
- 0.7344 1 2 tcp 1040 ------- 0 1.0 3.1 6 10
r 0.73899 3 2 ack 40 ------- 0 3.0 0.0 0 11
+ 0.73899 2 0 ack 40 ------- 0 3.0 0.0 0 11
- 0.73899 2 0 ack 40 ------- 0 3.0 0.0 0 11
r 0.744 2 3 tcp 1040 ------- 0 1.0 3.1 3 6
+ 0.744 3 2 ack 40 ------- 0 3.1 1.0 3 12
- 0.744 3 2 ack 40 ------- 0 3.1 1.0 3 12
r 0.7444 1 2 tcp 1040 ------- 0 1.0 3.1 5 9
+ 0.7444 2 3 tcp 1040 ------- 0 1.0 3.1 5 9
- 0.7444 2 3 tcp 1040 ------- 0 1.0 3.1 5 9
r 0.74939 2 0 ack 40 ------- 0 3.0 0.0 0 11
+ 0.74939 0 2 tcp 1040 ------- 0 0.0 3.0 1 13
- 0.74939 0 2 tcp 1040 ------- 0 0.0 3.0 1 13
r 0.7544 2 3 tcp 1040 ------- 0 1.0 3.1 4 7
+ 0.7544 3 2 ack 40 ------- 0 3.1 1.0 4 14
- 0.7544 3 2 ack 40 ------- 0 3.1 1.0 4 14
r 0.7544 3 2 ack 40 ------- 0 3.1 1.0 3 12
+ 0.7544 2 1 ack 40 ------- 0 3.1 1.0 3 12
- 0.7544 2 1 ack 40 ------- 0 3.1 1.0 3 12
r 0.7548 1 2 tcp 1040 ------- 0 1.0 3.1 6 10
+ 0.7548 2 3 tcp 1040 ------- 0 1.0 3.1 6 10
- 0.7548 2 3 tcp 1040 ------- 0 1.0 3.1 6 10
r 0.7648 2 3 tcp 1040 ------- 0 1.0 3.1 5 9
+ 0.7648 3 2 ack 40 ------- 0 3.1 1.0 5 15
- 0.7648 3 2 ack 40 ------- 0 3.1 1.0 5 15
r 0.7648 3 2 ack 40 ------- 0 3.1 1.0 4 14
+ 0.7648 2 1 ack 40 ------- 0 3.1 1.0 4 14
- 0.7648 2 1 ack 40 ------- 0 3.1 1.0 4 14
r 0.7648 2 1 ack 40 ------- 0 3.1 1.0 3 12
+ 0.7648 1 2 tcp 1040 ------- 0 1.0 3.1 7 16
- 0.7648 1 2 tcp 1040 ------- 0 1.0 3.1 7 16
+ 0.7648 1 2 tcp 1040 ------- 0 1.0 3.1 8 17
r 0.76979 0 2 tcp 1040 ------- 0 0.0 3.0 1 13
+ 0.76979 2 3 tcp 1040 ------- 0 0.0 3.0 1 13
- 0.76979 2 3 tcp 1040 ------- 0 0.0 3.0 1 13
r 0.7752 2 3 tcp 1040 ------- 0 1.0 3.1 6 10
+ 0.7752 3 2 ack 40 ------- 0 3.1 1.0 6 18
- 0.7752 3 2 ack 40 ------- 0 3.1 1.0 6 18
r 0.7752 3 2 ack 40 ------- 0 3.1 1.0 5 15
+ 0.7752 2 1 ack 40 ------- 0 3.1 1.0 5 15
- 0.7752 2 1 ack 40 ------- 0 3.1 1.0 5 15
r 0.7752 2 1 ack 40 ------- 0 3.1 1.0 4 14
+ 0.7752 1 2 tcp 1040 ------- 0 1.0 3.1 9 19
+ 0.7752 1 2 tcp 1040 ------- 0 1.0 3.1 10 20
- 0.7752 1 2 tcp 1040 ------- 0 1.0 3.1 8 17
r 0.7852 1 2 tcp 1040 ------- 0 1.0 3.1 7 16
+ 0.7852 2 3 tcp 1040 ------- 0 1.0 3.1 7 16
- 0.7852 2 3 tcp 1040 ------- 0 1.0 3.1 7 16
r 0.7856 3 2 ack 40 ------- 0 3.1 1.0 6 18
+ 0.7856 2 1 ack 40 ------- 0 3.1 1.0 6 18
- 0.7856 2 1 ack 40 ------- 0 3.1 1.0 6 18
r 0.7856 2 1 ack 40 ------- 0 3.1 1.0 5 15
+ 0.7856 1 2 tcp 1040 ------- 0 1.0 3.1 11 21
+ 0.7856 1 2 tcp 1040 ------- 0 1.0 3.1 12 22
- 0.7856 1 2 tcp 1040 ------- 0 1.0 3.1 9 19
r 0.79019 2 3 tcp 1040 ------- 0 0.0 3.0 1 13
+ 0.79019 3 2 ack 40 ------- 0 3.0 0.0 1 23
- 0.79019 3 2 ack 40 ------- 0 3.0 0.0 1 23
r 0.7956 1 2 tcp 1040 ------- 0 1.0 3.1 8 17
+ 0.7956 2 3 tcp 1040 ------- 0 1.0 3.1 8 17
- 0.7956 2 3 tcp 1040 ------- 0 1.0 3.1 8 17
r 0.796 2 1 ack 40 ------- 0 3.1 1.0 6 18
+ 0.796 1 2 tcp 1040 ------- 0 1.0 3.1 13 24
+ 0.796 1 2 tcp 1040 ------- 0 1.0 3.1 14 25
- 0.796 1 2 tcp 1040 ------- 0 1.0 3.1 10 20
r 0.80059 3 2 ack 40 ------- 0 3.0 0.0 1 23
+ 0.80059 2 0 ack 40 ------- 0 3.0 0.0 1 23
- 0.80059 2 0 ack 40 ------- 0 3.0 0.0 1 23
r 0.8056 2 3 tcp 1040 ------- 0 1.0 3.1 7 16
+ 0.8056 3 2 ack 40 ------- 0 3.1 1.0 7 26
- 0.8056 3 2 ack 40 ------- 0 3.1 1.0 7 26
r 0.806 1 2 tcp 1040 ------- 0 1.0 3.1 9 19
+ 0.806 2 3 tcp 1040 ------- 0 1.0 3.1 9 19
- 0.806 2 3 tcp 1040 ------- 0 1.0 3.1 9 19
- 0.8064 1 2 tcp 1040 ------- 0 1.0 3.1 11 21
r 0.81099 2 0 ack 40 ------- 0 3.0 0.0 1 23
r 0.816 2 3 tcp 1040 ------- 0 1.0 3.1 8 17
+ 0.816 3 2 ack 40 ------- 0 3.1 1.0 8 27
- 0.816 3 2 ack 40 ------- 0 3.1 1.0 8 27
r 0.816 3 2 ack 40 ------- 0 3.1 1.0 7 26
+ 0.816 2 1 ack 40 ------- 0 3.1 1.0 7 26
- 0.816 2 1 ack 40 ------- 0 3.1 1.0 7 26
r 0.8164 1 2 tcp 1040 ------- 0 1.0 3.1 10 20
+ 0.8164 2 3 tcp 1040 ------- 0 1.0 3.1 10 20
- 0.8164 2 3 tcp 1040 ------- 0 1.0 3.1 10 20
- 0.8168 1 2 tcp 1040 ------- 0 1.0 3.1 12 22
r 0.8264 2 3 tcp 1040 ------- 0 1.0 3.1 9 19
+ 0.8264 3 2 ack 40 ------- 0 3.1 1.0 9 28
- 0.8264 3 2 ack 40 ------- 0 3.1 1.0 9 28
r 0.8264 3 2 ack 40 ------- 0 3.1 1.0 8 27
+ 0.8264 2 1 ack 40 ------- 0 3.1 1.0 8 27
- 0.8264 2 1 ack 40 ------- 0 3.1 1.0 8 27
r 0.8264 2 1 ack 40 ------- 0 3.1 1.0 7 26
+ 0.8264 1 2 tcp 1040 ------- 0 1.0 3.1 15 29
+ 0.8264 1 2 tcp 1040 ------- 0 1.0 3.1 16 30
r 0.8268 1 2 tcp 1040 ------- 0 1.0 3.1 11 21
+ 0.8268 2 3 tcp 1040 ------- 0 1.0 3.1 11 21
- 0.8268 2 3 tcp 1040 ------- 0 1.0 3.1 11 21
- 0.8272 1 2 tcp 1040 ------- 0 1.0 3.1 13 24
r 0.8368 2 3 tcp 1040 ------- 0 1.0 3.1 10 20
+ 0.8368 3 2 ack 40 ------- 0 3.1 1.0 10 31
- 0.8368 3 2 ack 40 ------- 0 3.1 1.0 10 31
r 0.8368 3 2 ack 40 ------- 0 3.1 1.0 9 28
+ 0.8368 2 1 ack 40 ------- 0 3.1 1.0 9 28
- 0.8368 2 1 ack 40 ------- 0 3.1 1.0 9 28
r 0.8368 2 1 ack 40 ------- 0 3.1 1.0 8 27
+ 0.8368 1 2 tcp 1040 ------- 0 1.0 3.1 17 32
+ 0.8368 1 2 tcp 1040 ------- 0 1.0 3.1 18 33
r 0.8372 1 2 tcp 1040 ------- 0 1.0 3.1 12 22
+ 0.8372 2 3 tcp 1040 ------- 0 1.0 3.1 12 22
- 0.8372 2 3 tcp 1040 ------- 0 1.0 3.1 12 22
- 0.8376 1 2 tcp 1040 ------- 0 1.0 3.1 14 25
r 0.8472 2 3 tcp 1040 ------- 0 1.0 3.1 11 21
+ 0.8472 3 2 ack 40 ------- 0 3.1 1.0 11 34
- 0.8472 3 2 ack 40 ------- 0 3.1 1.0 11 34
r 0.8472 3 2 ack 40 ------- 0 3.1 1.0 10 31
+ 0.8472 2 1 ack 40 ------- 0 3.1 1.0 10 31
- 0.8472 2 1 ack 40 ------- 0 3.1 1.0 10 31
r 0.8472 2 1 ack 40 ------- 0 3.1 1.0 9 28
+ 0.8472 1 2 tcp 1040 ------- 0 1.0 3.1 19 35
+ 0.8472 1 2 tcp 1040 ------- 0 1.0 3.1 20 36
r 0.8476 1 2 tcp 1040 ------- 0 1.0 3.1 13 24
+ 0.8476 2 3 tcp 1040 ------- 0 1.0 3.1 13 24
- 0.8476 2 3 tcp 1040 ------- 0 1.0 3.1 13 24
- 0.848 1 2 tcp 1040 ------- 0 1.0 3.1 15 29
r 0.8576 2 3 tcp 1040 ------- 0 1.0 3.1 12 22
+ 0.8576 3 2 ack 40 ------- 0 3.1 1.0 12 37
- 0.8576 3 2 ack 40 ------- 0 3.1 1.0 12 37
r 0.8576 3 2 ack 40 ------- 0 3.1 1.0 11 34
+ 0.8576 2 1 ack 40 ------- 0 3.1 1.0 11 34
- 0.8576 2 1 ack 40 ------- 0 3.1 1.0 11 34
r 0.8576 2 1 ack 40 ------- 0 3.1 1.0 10 31
+ 0.8576 1 2 tcp 1040 ------- 0 1.0 3.1 21 38
+ 0.8576 1 2 tcp 1040 ------- 0 1.0 3.1 22 39
r 0.858 1 2 tcp 1040 ------- 0 1.0 3.1 14 25
+ 0.858 2 3 tcp 1040 ------- 0 1.0 3.1 14 25
- 0.858 2 3 tcp 1040 ------- 0 1.0 3.1 14 25
- 0.8584 1 2 tcp 1040 ------- 0 1.0 3.1 16 30
r 0.868 2 3 tcp 1040 ------- 0 1.0 3.1 13 24
+ 0.868 3 2 ack 40 ------- 0 3.1 1.0 13 40
- 0.868 3 2 ack 40 ------- 0 3.1 1.0 13 40
r 0.868 3 2 ack 40 ------- 0 3.1 1.0 12 37
+ 0.868 2 1 ack 40 ------- 0 3.1 1.0 12 37
- 0.868 2 1 ack 40 ------- 0 3.1 1.0 12 37
r 0.868 2 1 ack 40 ------- 0 3.1 1.0 11 34
+ 0.868 1 2 tcp 1040 ------- 0 1.0 3.1 23 41
+ 0.868 1 2 tcp 1040 ------- 0 1.0 3.1 24 42
r 0.8684 1 2 tcp 1040 ------- 0 1.0 3.1 15 29
+ 0.8684 2 3 tcp 1040 ------- 0 1.0 3.1 15 29
- 0.8684 2 3 tcp 1040 ------- 0 1.0 3.1 15 29
- 0.8688 1 2 tcp 1040 ------- 0 1.0 3.1 17 32
r 0.8784 2 3 tcp 1040 ------- 0 1.0 3.1 14 25
+ 0.8784 3 2 ack 40 ------- 0 3.1 1.0 14 43
- 0.8784 3 2 ack 40 ------- 0 3.1 1.0 14 43
r 0.8784 3 2 ack 40 ------- 0 3.1 1.0 13 40
+ 0.8784 2 1 ack 40 ------- 0 3.1 1.0 13 40
- 0.8784 2 1 ack 40 ------- 0 3.1 1.0 13 40
r 0.8784 2 1 ack 40 ------- 0 3.1 1.0 12 37
+ 0.8784 1 2 tcp 1040 ------- 0 1.0 3.1 25 44
+ 0.8784 1 2 tcp 1040 ------- 0 1.0 3.1 26 45
r 0.8788 1 2 tcp 1040 ------- 0 1.0 3.1 16 30
+ 0.8788 2 3 tcp 1040 ------- 0 1.0 3.1 16 30
- 0.8788 2 3 tcp 1040 ------- 0 1.0 3.1 16 30
- 0.8792 1 2 tcp 1040 ------- 0 1.0 3.1 18 33
r 0.8888 2 3 tcp 1040 ------- 0 1.0 3.1 15 29
+ 0.8888 3 2 ack 40 ------- 0 3.1 1.0 15 46
- 0.8888 3 2 ack 40 ------- 0 3.1 1.0 15 46
r 0.8888 3 2 ack 40 ------- 0 3.1 1.0 14 43
+ 0.8888 2 1 ack 40 ------- 0 3.1 1.0 14 43
- 0.8888 2 1 ack 40 ------- 0 3.1 1.0 14 43
r 0.8888 2 1 ack 40 ------- 0 3.1 1.0 13 40
+ 0.8888 1 2 tcp 1040 ------- 0 1.0 3.1 27 47
+ 0.8888 1 2 tcp 1040 ------- 0 1.0 3.1 28 48
r 0.8892 1 2 tcp 1040 ------- 0 1.0 3.1 17 32
+ 0.8892 2 3 tcp 1040 ------- 0 1.0 3.1 17 32
- 0.8892 2 3 tcp 1040 ------- 0 1.0 3.1 17 32
- 0.8896 1 2 tcp 1040 ------- 0 1.0 3.1 19 35
r 0.8992 2 3 tcp 1040 ------- 0 1.0 3.1 16 30
+ 0.8992 3 2 ack 40 ------- 0 3.1 1.0 16 49
- 0.8992 3 2 ack 40 ------- 0 3.1 1.0 16 49
r 0.8992 3 2 ack 40 ------- 0 3.1 1.0 15 46
+ 0.8992 2 1 ack 40 ------- 0 3.1 1.0 15 46
- 0.8992 2 1 ack 40 ------- 0 3.1 1.0 15 46
r 0.8992 2 1 ack 40 ------- 0 3.1 1.0 14 43
+ 0.8992 1 2 tcp 1040 ------- 0 1.0 3.1 29 50
+ 0.8992 1 2 tcp 1040 ------- 0 1.0 3.1 30 51
r 0.8996 1 2 tcp 1040 ------- 0 1.0 3.1 18 33
+ 0.8996 2 3 tcp 1040 ------- 0 1.0 3.1 18 33
- 0.8996 2 3 tcp 1040 ------- 0 1.0 3.1 18 33
- 0.9 1 2 tcp 1040 ------- 0 1.0 3.1 20 36
r 0.9096 2 3 tcp 1040 ------- 0 1.0 3.1 17 32
+ 0.9096 3 2 ack 40 ------- 0 3.1 1.0 17 52
- 0.9096 3 2 ack 40 ------- 0 3.1 1.0 17 52
r 0.9096 3 2 ack 40 ------- 0 3.1 1.0 16 49
+ 0.9096 2 1 ack 40 ------- 0 3.1 1.0 16 49
- 0.9096 2 1 ack 40 ------- 0 3.1 1.0 16 49
r 0.9096 2 1 ack 40 ------- 0 3.1 1.0 15 46
+ 0.9096 1 2 tcp 1040 ------- 0 1.0 3.1 31 53
+ 0.9096 1 2 tcp 1040 ------- 0 1.0 3.1 32 54
r 0.91 1 2 tcp 1040 ------- 0 1.0 3.1 19 35
+ 0.91 2 3 tcp 1040 ------- 0 1.0 3.1 19 35
- 0.91 2 3 tcp 1040 ------- 0 1.0 3.1 19 35
- 0.9104 1 2 tcp 1040 ------- 0 1.0 3.1 21 38
r 0.92 2 3 tcp 1040 ------- 0 1.0 3.1 18 33
+ 0.92 3 2 ack 40 ------- 0 3.1 1.0 18 55
- 0.92 3 2 ack 40 ------- 0 3.1 1.0 18 55
r 0.92 3 2 ack 40 ------- 0 3.1 1.0 17 52
+ 0.92 2 1 ack 40 ------- 0 3.1 1.0 17 52
- 0.92 2 1 ack 40 ------- 0 3.1 1.0 17 52
r 0.92 2 1 ack 40 ------- 0 3.1 1.0 16 49
+ 0.92 1 2 tcp 1040 ------- 0 1.0 3.1 33 56
+ 0.92 1 2 tcp 1040 ------- 0 1.0 3.1 34 57
r 0.9204 1 2 tcp 1040 ------- 0 1.0 3.1 20 36
+ 0.9204 2 3 tcp 1040 ------- 0 1.0 3.1 20 36
- 0.9204 2 3 tcp 1040 ------- 0 1.0 3.1 20 36
- 0.9208 1 2 tcp 1040 ------- 0 1.0 3.1 22 39
r 0.9304 2 3 tcp 1040 ------- 0 1.0 3.1 19 35
+ 0.9304 3 2 ack 40 ------- 0 3.1 1.0 19 58
- 0.9304 3 2 ack 40 ------- 0 3.1 1.0 19 58
r 0.9304 3 2 ack 40 ------- 0 3.1 1.0 18 55
+ 0.9304 2 1 ack 40 ------- 0 3.1 1.0 18 55
- 0.9304 2 1 ack 40 ------- 0 3.1 1.0 18 55
r 0.9304 2 1 ack 40 ------- 0 3.1 1.0 17 52
+ 0.9304 1 2 tcp 1040 ------- 0 1.0 3.1 35 59
+ 0.9304 1 2 tcp 1040 ------- 0 1.0 3.1 36 60
r 0.9308 1 2 tcp 1040 ------- 0 1.0 3.1 21 38
+ 0.9308 2 3 tcp 1040 ------- 0 1.0 3.1 21 38
- 0.9308 2 3 tcp 1040 ------- 0 1.0 3.1 21 38
- 0.9312 1 2 tcp 1040 ------- 0 1.0 3.1 23 41
r 0.9408 2 3 tcp 1040 ------- 0 1.0 3.1 20 36
+ 0.9408 3 2 ack 40 ------- 0 3.1 1.0 20 61
- 0.9408 3 2 ack 40 ------- 0 3.1 1.0 20 61
r 0.9408 3 2 ack 40 ------- 0 3.1 1.0 19 58
+ 0.9408 2 1 ack 40 ------- 0 3.1 1.0 19 58
- 0.9408 2 1 ack 40 ------- 0 3.1 1.0 19 58
r 0.9408 2 1 ack 40 ------- 0 3.1 1.0 18 55
+ 0.9408 1 2 tcp 1040 ------- 0 1.0 3.1 37 62
+ 0.9408 1 2 tcp 1040 ------- 0 1.0 3.1 38 63
r 0.9412 1 2 tcp 1040 ------- 0 1.0 3.1 22 39
+ 0.9412 2 3 tcp 1040 ------- 0 1.0 3.1 22 39
- 0.9412 2 3 tcp 1040 ------- 0 1.0 3.1 22 39
- 0.9416 1 2 tcp 1040 ------- 0 1.0 3.1 24 42
r 0.9512 2 3 tcp 1040 ------- 0 1.0 3.1 21 38
+ 0.9512 3 2 ack 40 ------- 0 3.1 1.0 21 64
- 0.9512 3 2 ack 40 ------- 0 3.1 1.0 21 64
r 0.9512 3 2 ack 40 ------- 0 3.1 1.0 20 61
+ 0.9512 2 1 ack 40 ------- 0 3.1 1.0 20 61
- 0.9512 2 1 ack 40 ------- 0 3.1 1.0 20 61
r 0.9512 2 1 ack 40 ------- 0 3.1 1.0 19 58
+ 0.9512 1 2 tcp 1040 ------- 0 1.0 3.1 39 65
r 0.9516 1 2 tcp 1040 ------- 0 1.0 3.1 23 41
+ 0.9516 2 3 tcp 1040 ------- 0 1.0 3.1 23 41
- 0.9516 2 3 tcp 1040 ------- 0 1.0 3.1 23 41
- 0.952 1 2 tcp 1040 ------- 0 1.0 3.1 25 44
r 0.9616 2 3 tcp 1040 ------- 0 1.0 3.1 22 39
+ 0.9616 3 2 ack 40 ------- 0 3.1 1.0 22 66
- 0.9616 3 2 ack 40 ------- 0 3.1 1.0 22 66
r 0.9616 3 2 ack 40 ------- 0 3.1 1.0 21 64
+ 0.9616 2 1 ack 40 ------- 0 3.1 1.0 21 64
- 0.9616 2 1 ack 40 ------- 0 3.1 1.0 21 64
r 0.9616 2 1 ack 40 ------- 0 3.1 1.0 20 61
+ 0.9616 1 2 tcp 1040 ------- 0 1.0 3.1 40 67
r 0.962 1 2 tcp 1040 ------- 0 1.0 3.1 24 42
+ 0.962 2 3 tcp 1040 ------- 0 1.0 3.1 24 42
- 0.962 2 3 tcp 1040 ------- 0 1.0 3.1 24 42
- 0.9624 1 2 tcp 1040 ------- 0 1.0 3.1 26 45
r 0.972 2 3 tcp 1040 ------- 0 1.0 3.1 23 41
+ 0.972 3 2 ack 40 ------- 0 3.1 1.0 23 68
- 0.972 3 2 ack 40 ------- 0 3.1 1.0 23 68
r 0.972 3 2 ack 40 ------- 0 3.1 1.0 22 66
+ 0.972 2 1 ack 40 ------- 0 3.1 1.0 22 66
- 0.972 2 1 ack 40 ------- 0 3.1 1.0 22 66
r 0.972 2 1 ack 40 ------- 0 3.1 1.0 21 64
+ 0.972 1 2 tcp 1040 ------- 0 1.0 3.1 41 69
r 0.9724 1 2 tcp 1040 ------- 0 1.0 3.1 25 44
+ 0.9724 2 3 tcp 1040 ------- 0 1.0 3.1 25 44
- 0.9724 2 3 tcp 1040 ------- 0 1.0 3.1 25 44
- 0.9728 1 2 tcp 1040 ------- 0 1.0 3.1 27 47
r 0.9824 2 3 tcp 1040 ------- 0 1.0 3.1 24 42
+ 0.9824 3 2 ack 40 ------- 0 3.1 1.0 24 70
- 0.9824 3 2 ack 40 ------- 0 3.1 1.0 24 70
r 0.9824 3 2 ack 40 ------- 0 3.1 1.0 23 68
+ 0.9824 2 1 ack 40 ------- 0 3.1 1.0 23 68
- 0.9824 2 1 ack 40 ------- 0 3.1 1.0 23 68
r 0.9824 2 1 ack 40 ------- 0 3.1 1.0 22 66
+ 0.9824 1 2 tcp 1040 ------- 0 1.0 3.1 42 71
r 0.9828 1 2 tcp 1040 ------- 0 1.0 3.1 26 45
+ 0.9828 2 3 tcp 1040 ------- 0 1.0 3.1 26 45
- 0.9828 2 3 tcp 1040 ------- 0 1.0 3.1 26 45
- 0.9832 1 2 tcp 1040 ------- 0 1.0 3.1 28 48
r 0.9928 2 3 tcp 1040 ------- 0 1.0 3.1 25 44
+ 0.9928 3 2 ack 40 ------- 0 3.1 1.0 25 72
- 0.9928 3 2 ack 40 ------- 0 3.1 1.0 25 72
r 0.9928 3 2 ack 40 ------- 0 3.1 1.0 24 70
+ 0.9928 2 1 ack 40 ------- 0 3.1 1.0 24 70
- 0.9928 2 1 ack 40 ------- 0 3.1 1.0 24 70
r 0.9928 2 1 ack 40 ------- 0 3.1 1.0 23 68
+ 0.9928 1 2 tcp 1040 ------- 0 1.0 3.1 43 73
r 0.9932 1 2 tcp 1040 ------- 0 1.0 3.1 27 47
+ 0.9932 2 3 tcp 1040 ------- 0 1.0 3.1 27 47
- 0.9932 2 3 tcp 1040 ------- 0 1.0 3.1 27 47
- 0.9936 1 2 tcp 1040 ------- 0 1.0 3.1 29 50
r 1.0032 2 3 tcp 1040 ------- 0 1.0 3.1 26 45
+ 1.0032 3 2 ack 40 ------- 0 3.1 1.0 26 74
- 1.0032 3 2 ack 40 ------- 0 3.1 1.0 26 74
r 1.0032 3 2 ack 40 ------- 0 3.1 1.0 25 72
+ 1.0032 2 1 ack 40 ------- 0 3.1 1.0 25 72
- 1.0032 2 1 ack 40 ------- 0 3.1 1.0 25 72
r 1.0032 2 1 ack 40 ------- 0 3.1 1.0 24 70
+ 1.0032 1 2 tcp 1040 ------- 0 1.0 3.1 44 75
r 1.0036 1 2 tcp 1040 ------- 0 1.0 3.1 28 48
+ 1.0036 2 3 tcp 1040 ------- 0 1.0 3.1 28 48
- 1.0036 2 3 tcp 1040 ------- 0 1.0 3.1 28 48
- 1.004 1 2 tcp 1040 ------- 0 1.0 3.1 30 51
r 1.0136 2 3 tcp 1040 ------- 0 1.0 3.1 27 47
+ 1.0136 3 2 ack 40 ------- 0 3.1 1.0 27 76
- 1.0136 3 2 ack 40 ------- 0 3.1 1.0 27 76
r 1.0136 3 2 ack 40 ------- 0 3.1 1.0 26 74
+ 1.0136 2 1 ack 40 ------- 0 3.1 1.0 26 74
- 1.0136 2 1 ack 40 ------- 0 3.1 1.0 26 74
r 1.0136 2 1 ack 40 ------- 0 3.1 1.0 25 72
+ 1.0136 1 2 tcp 1040 ------- 0 1.0 3.1 45 77
r 1.014 1 2 tcp 1040 ------- 0 1.0 3.1 29 50
+ 1.014 2 3 tcp 1040 ------- 0 1.0 3.1 29 50
- 1.014 2 3 tcp 1040 ------- 0 1.0 3.1 29 50
- 1.0144 1 2 tcp 1040 ------- 0 1.0 3.1 31 53
r 1.024 2 3 tcp 1040 ------- 0 1.0 3.1 28 48
+ 1.024 3 2 ack 40 ------- 0 3.1 1.0 28 78
- 1.024 3 2 ack 40 ------- 0 3.1 1.0 28 78
r 1.024 3 2 ack 40 ------- 0 3.1 1.0 27 76
+ 1.024 2 1 ack 40 ------- 0 3.1 1.0 27 76
- 1.024 2 1 ack 40 ------- 0 3.1 1.0 27 76
r 1.024 2 1 ack 40 ------- 0 3.1 1.0 26 74
+ 1.024 1 2 tcp 1040 ------- 0 1.0 3.1 46 79
r 1.0244 1 2 tcp 1040 ------- 0 1.0 3.1 30 51
+ 1.0244 2 3 tcp 1040 ------- 0 1.0 3.1 30 51
- 1.0244 2 3 tcp 1040 ------- 0 1.0 3.1 30 51
- 1.0248 1 2 tcp 1040 ------- 0 1.0 3.1 32 54
r 1.0344 2 3 tcp 1040 ------- 0 1.0 3.1 29 50
+ 1.0344 3 2 ack 40 ------- 0 3.1 1.0 29 80
- 1.0344 3 2 ack 40 ------- 0 3.1 1.0 29 80
r 1.0344 3 2 ack 40 ------- 0 3.1 1.0 28 78
+ 1.0344 2 1 ack 40 ------- 0 3.1 1.0 28 78
- 1.0344 2 1 ack 40 ------- 0 3.1 1.0 28 78
r 1.0344 2 1 ack 40 ------- 0 3.1 1.0 27 76
+ 1.0344 1 2 tcp 1040 ------- 0 1.0 3.1 47 81
r 1.0348 1 2 tcp 1040 ------- 0 1.0 3.1 31 53
+ 1.0348 2 3 tcp 1040 ------- 0 1.0 3.1 31 53
- 1.0348 2 3 tcp 1040 ------- 0 1.0 3.1 31 53
- 1.0352 1 2 tcp 1040 ------- 0 1.0 3.1 33 56
r 1.0448 2 3 tcp 1040 ------- 0 1.0 3.1 30 51
+ 1.0448 3 2 ack 40 ------- 0 3.1 1.0 30 82
- 1.0448 3 2 ack 40 ------- 0 3.1 1.0 30 82
r 1.0448 3 2 ack 40 ------- 0 3.1 1.0 29 80
+ 1.0448 2 1 ack 40 ------- 0 3.1 1.0 29 80
- 1.0448 2 1 ack 40 ------- 0 3.1 1.0 29 80
r 1.0448 2 1 ack 40 ------- 0 3.1 1.0 28 78
+ 1.0448 1 2 tcp 1040 ------- 0 1.0 3.1 48 83
r 1.0452 1 2 tcp 1040 ------- 0 1.0 3.1 32 54
+ 1.0452 2 3 tcp 1040 ------- 0 1.0 3.1 32 54
- 1.0452 2 3 tcp 1040 ------- 0 1.0 3.1 32 54
- 1.0456 1 2 tcp 1040 ------- 0 1.0 3.1 34 57
r 1.0552 2 3 tcp 1040 ------- 0 1.0 3.1 31 53
+ 1.0552 3 2 ack 40 ------- 0 3.1 1.0 31 84
- 1.0552 3 2 ack 40 ------- 0 3.1 1.0 31 84
r 1.0552 3 2 ack 40 ------- 0 3.1 1.0 30 82
+ 1.0552 2 1 ack 40 ------- 0 3.1 1.0 30 82
- 1.0552 2 1 ack 40 ------- 0 3.1 1.0 30 82
r 1.0552 2 1 ack 40 ------- 0 3.1 1.0 29 80
+ 1.0552 1 2 tcp 1040 ------- 0 1.0 3.1 49 85
r 1.0556 1 2 tcp 1040 ------- 0 1.0 3.1 33 56
+ 1.0556 2 3 tcp 1040 ------- 0 1.0 3.1 33 56
- 1.0556 2 3 tcp 1040 ------- 0 1.0 3.1 33 56
- 1.056 1 2 tcp 1040 ------- 0 1.0 3.1 35 59
r 1.0656 2 3 tcp 1040 ------- 0 1.0 3.1 32 54
+ 1.0656 3 2 ack 40 ------- 0 3.1 1.0 32 86
- 1.0656 3 2 ack 40 ------- 0 3.1 1.0 32 86
r 1.0656 3 2 ack 40 ------- 0 3.1 1.0 31 84
+ 1.0656 2 1 ack 40 ------- 0 3.1 1.0 31 84
- 1.0656 2 1 ack 40 ------- 0 3.1 1.0 31 84
r 1.0656 2 1 ack 40 ------- 0 3.1 1.0 30 82
+ 1.0656 1 2 tcp 1040 ------- 0 1.0 3.1 50 87
r 1.066 1 2 tcp 1040 ------- 0 1.0 3.1 34 57
+ 1.066 2 3 tcp 1040 ------- 0 1.0 3.1 34 57
- 1.066 2 3 tcp 1040 ------- 0 1.0 3.1 34 57
- 1.0664 1 2 tcp 1040 ------- 0 1.0 3.1 36 60
r 1.076 2 3 tcp 1040 ------- 0 1.0 3.1 33 56
+ 1.076 3 2 ack 40 ------- 0 3.1 1.0 33 88
- 1.076 3 2 ack 40 ------- 0 3.1 1.0 33 88
r 1.076 3 2 ack 40 ------- 0 3.1 1.0 32 86
+ 1.076 2 1 ack 40 ------- 0 3.1 1.0 32 86
- 1.076 2 1 ack 40 ------- 0 3.1 1.0 32 86
r 1.076 2 1 ack 40 ------- 0 3.1 1.0 31 84
+ 1.076 1 2 tcp 1040 ------- 0 1.0 3.1 51 89
r 1.0764 1 2 tcp 1040 ------- 0 1.0 3.1 35 59
+ 1.0764 2 3 tcp 1040 ------- 0 1.0 3.1 35 59
- 1.0764 2 3 tcp 1040 ------- 0 1.0 3.1 35 59
- 1.0768 1 2 tcp 1040 ------- 0 1.0 3.1 37 62
r 1.0864 2 3 tcp 1040 ------- 0 1.0 3.1 34 57
+ 1.0864 3 2 ack 40 ------- 0 3.1 1.0 34 90
- 1.0864 3 2 ack 40 ------- 0 3.1 1.0 34 90
r 1.0864 3 2 ack 40 ------- 0 3.1 1.0 33 88
+ 1.0864 2 1 ack 40 ------- 0 3.1 1.0 33 88
- 1.0864 2 1 ack 40 ------- 0 3.1 1.0 33 88
r 1.0864 2 1 ack 40 ------- 0 3.1 1.0 32 86
+ 1.0864 1 2 tcp 1040 ------- 0 1.0 3.1 52 91
r 1.0868 1 2 tcp 1040 ------- 0 1.0 3.1 36 60
+ 1.0868 2 3 tcp 1040 ------- 0 1.0 3.1 36 60
- 1.0868 2 3 tcp 1040 ------- 0 1.0 3.1 36 60
- 1.0872 1 2 tcp 1040 ------- 0 1.0 3.1 38 63
r 1.0968 2 3 tcp 1040 ------- 0 1.0 3.1 35 59
+ 1.0968 3 2 ack 40 ------- 0 3.1 1.0 35 92
- 1.0968 3 2 ack 40 ------- 0 3.1 1.0 35 92
r 1.0968 3 2 ack 40 ------- 0 3.1 1.0 34 90
+ 1.0968 2 1 ack 40 ------- 0 3.1 1.0 34 90
- 1.0968 2 1 ack 40 ------- 0 3.1 1.0 34 90
r 1.0968 2 1 ack 40 ------- 0 3.1 1.0 33 88
+ 1.0968 1 2 tcp 1040 ------- 0 1.0 3.1 53 93
r 1.0972 1 2 tcp 1040 ------- 0 1.0 3.1 37 62
+ 1.0972 2 3 tcp 1040 ------- 0 1.0 3.1 37 62
- 1.0972 2 3 tcp 1040 ------- 0 1.0 3.1 37 62
- 1.0976 1 2 tcp 1040 ------- 0 1.0 3.1 39 65
r 1.1072 2 3 tcp 1040 ------- 0 1.0 3.1 36 60
+ 1.1072 3 2 ack 40 ------- 0 3.1 1.0 36 94
- 1.1072 3 2 ack 40 ------- 0 3.1 1.0 36 94
r 1.1072 3 2 ack 40 ------- 0 3.1 1.0 35 92
+ 1.1072 2 1 ack 40 ------- 0 3.1 1.0 35 92
- 1.1072 2 1 ack 40 ------- 0 3.1 1.0 35 92
r 1.1072 2 1 ack 40 ------- 0 3.1 1.0 34 90
+ 1.1072 1 2 tcp 1040 ------- 0 1.0 3.1 54 95
r 1.1076 1 2 tcp 1040 ------- 0 1.0 3.1 38 63
+ 1.1076 2 3 tcp 1040 ------- 0 1.0 3.1 38 63
- 1.1076 2 3 tcp 1040 ------- 0 1.0 3.1 38 63
- 1.108 1 2 tcp 1040 ------- 0 1.0 3.1 40 67
r 1.1176 2 3 tcp 1040 ------- 0 1.0 3.1 37 62
+ 1.1176 3 2 ack 40 ------- 0 3.1 1.0 37 96
- 1.1176 3 2 ack 40 ------- 0 3.1 1.0 37 96
r 1.1176 3 2 ack 40 ------- 0 3.1 1.0 36 94
+ 1.1176 2 1 ack 40 ------- 0 3.1 1.0 36 94
- 1.1176 2 1 ack 40 ------- 0 3.1 1.0 36 94
r 1.1176 2 1 ack 40 ------- 0 3.1 1.0 35 92
+ 1.1176 1 2 tcp 1040 ------- 0 1.0 3.1 55 97
r 1.118 1 2 tcp 1040 ------- 0 1.0 3.1 39 65
+ 1.118 2 3 tcp 1040 ------- 0 1.0 3.1 39 65
- 1.118 2 3 tcp 1040 ------- 0 1.0 3.1 39 65
- 1.1184 1 2 tcp 1040 ------- 0 1.0 3.1 41 69
r 1.128 2 3 tcp 1040 ------- 0 1.0 3.1 38 63
+ 1.128 3 2 ack 40 ------- 0 3.1 1.0 38 98
- 1.128 3 2 ack 40 ------- 0 3.1 1.0 38 98
r 1.128 3 2 ack 40 ------- 0 3.1 1.0 37 96
+ 1.128 2 1 ack 40 ------- 0 3.1 1.0 37 96
- 1.128 2 1 ack 40 ------- 0 3.1 1.0 37 96
r 1.128 2 1 ack 40 ------- 0 3.1 1.0 36 94
+ 1.128 1 2 tcp 1040 ------- 0 1.0 3.1 56 99
r 1.1284 1 2 tcp 1040 ------- 0 1.0 3.1 40 67
+ 1.1284 2 3 tcp 1040 ------- 0 1.0 3.1 40 67
- 1.1284 2 3 tcp 1040 ------- 0 1.0 3.1 40 67
- 1.1288 1 2 tcp 1040 ------- 0 1.0 3.1 42 71
r 1.1384 2 3 tcp 1040 ------- 0 1.0 3.1 39 65
+ 1.1384 3 2 ack 40 ------- 0 3.1 1.0 39 100
- 1.1384 3 2 ack 40 ------- 0 3.1 1.0 39 100
r 1.1384 3 2 ack 40 ------- 0 3.1 1.0 38 98
+ 1.1384 2 1 ack 40 ------- 0 3.1 1.0 38 98
- 1.1384 2 1 ack 40 ------- 0 3.1 1.0 38 98
r 1.1384 2 1 ack 40 ------- 0 3.1 1.0 37 96
+ 1.1384 1 2 tcp 1040 ------- 0 1.0 3.1 57 101
r 1.1388 1 2 tcp 1040 ------- 0 1.0 3.1 41 69
+ 1.1388 2 3 tcp 1040 ------- 0 1.0 3.1 41 69
- 1.1388 2 3 tcp 1040 ------- 0 1.0 3.1 41 69
- 1.1392 1 2 tcp 1040 ------- 0 1.0 3.1 43 73
r 1.1488 2 3 tcp 1040 ------- 0 1.0 3.1 40 67
+ 1.1488 3 2 ack 40 ------- 0 3.1 1.0 40 102
- 1.1488 3 2 ack 40 ------- 0 3.1 1.0 40 102
r 1.1488 3 2 ack 40 ------- 0 3.1 1.0 39 100
+ 1.1488 2 1 ack 40 ------- 0 3.1 1.0 39 100
- 1.1488 2 1 ack 40 ------- 0 3.1 1.0 39 100
r 1.1488 2 1 ack 40 ------- 0 3.1 1.0 38 98
+ 1.1488 1 2 tcp 1040 ------- 0 1.0 3.1 58 103
r 1.1492 1 2 tcp 1040 ------- 0 1.0 3.1 42 71
+ 1.1492 2 3 tcp 1040 ------- 0 1.0 3.1 42 71
- 1.1492 2 3 tcp 1040 ------- 0 1.0 3.1 42 71
- 1.1496 1 2 tcp 1040 ------- 0 1.0 3.1 44 75
r 1.1592 2 3 tcp 1040 ------- 0 1.0 3.1 41 69
+ 1.1592 3 2 ack 40 ------- 0 3.1 1.0 41 104
- 1.1592 3 2 ack 40 ------- 0 3.1 1.0 41 104
r 1.1592 3 2 ack 40 ------- 0 3.1 1.0 40 102
+ 1.1592 2 1 ack 40 ------- 0 3.1 1.0 40 102
- 1.1592 2 1 ack 40 ------- 0 3.1 1.0 40 102
r 1.1592 2 1 ack 40 ------- 0 3.1 1.0 39 100
+ 1.1592 1 2 tcp 1040 ------- 0 1.0 3.1 59 105
r 1.1596 1 2 tcp 1040 ------- 0 1.0 3.1 43 73
+ 1.1596 2 3 tcp 1040 ------- 0 1.0 3.1 43 73
- 1.1596 2 3 tcp 1040 ------- 0 1.0 3.1 43 73
- 1.16 1 2 tcp 1040 ------- 0 1.0 3.1 45 77
r 1.1696 2 3 tcp 1040 ------- 0 1.0 3.1 42 71
+ 1.1696 3 2 ack 40 ------- 0 3.1 1.0 42 106
- 1.1696 3 2 ack 40 ------- 0 3.1 1.0 42 106
r 1.1696 3 2 ack 40 ------- 0 3.1 1.0 41 104
+ 1.1696 2 1 ack 40 ------- 0 3.1 1.0 41 104
- 1.1696 2 1 ack 40 ------- 0 3.1 1.0 41 104
r 1.1696 2 1 ack 40 ------- 0 3.1 1.0 40 102
+ 1.1696 1 2 tcp 1040 ------- 0 1.0 3.1 60 107
r 1.17 1 2 tcp 1040 ------- 0 1.0 3.1 44 75
+ 1.17 2 3 tcp 1040 ------- 0 1.0 3.1 44 75
- 1.17 2 3 tcp 1040 ------- 0 1.0 3.1 44 75
- 1.1704 1 2 tcp 1040 ------- 0 1.0 3.1 46 79
r 1.18 2 3 tcp 1040 ------- 0 1.0 3.1 43 73
+ 1.18 3 2 ack 40 ------- 0 3.1 1.0 43 108
- 1.18 3 2 ack 40 ------- 0 3.1 1.0 43 108
r 1.18 3 2 ack 40 ------- 0 3.1 1.0 42 106
+ 1.18 2 1 ack 40 ------- 0 3.1 1.0 42 106
- 1.18 2 1 ack 40 ------- 0 3.1 1.0 42 106
r 1.18 2 1 ack 40 ------- 0 3.1 1.0 41 104
+ 1.18 1 2 tcp 1040 ------- 0 1.0 3.1 61 109
r 1.1804 1 2 tcp 1040 ------- 0 1.0 3.1 45 77
+ 1.1804 2 3 tcp 1040 ------- 0 1.0 3.1 45 77
- 1.1804 2 3 tcp 1040 ------- 0 1.0 3.1 45 77
- 1.1808 1 2 tcp 1040 ------- 0 1.0 3.1 47 81
r 1.1904 2 3 tcp 1040 ------- 0 1.0 3.1 44 75
+ 1.1904 3 2 ack 40 ------- 0 3.1 1.0 44 110
- 1.1904 3 2 ack 40 ------- 0 3.1 1.0 44 110
r 1.1904 3 2 ack 40 ------- 0 3.1 1.0 43 108
+ 1.1904 2 1 ack 40 ------- 0 3.1 1.0 43 108
- 1.1904 2 1 ack 40 ------- 0 3.1 1.0 43 108
r 1.1904 2 1 ack 40 ------- 0 3.1 1.0 42 106
+ 1.1904 1 2 tcp 1040 ------- 0 1.0 3.1 62 111
r 1.1908 1 2 tcp 1040 ------- 0 1.0 3.1 46 79
+ 1.1908 2 3 tcp 1040 ------- 0 1.0 3.1 46 79
- 1.1908 2 3 tcp 1040 ------- 0 1.0 3.1 46 79
- 1.1912 1 2 tcp 1040 ------- 0 1.0 3.1 48 83
r 1.2008 2 3 tcp 1040 ------- 0 1.0 3.1 45 77
+ 1.2008 3 2 ack 40 ------- 0 3.1 1.0 45 112
- 1.2008 3 2 ack 40 ------- 0 3.1 1.0 45 112
r 1.2008 3 2 ack 40 ------- 0 3.1 1.0 44 110
+ 1.2008 2 1 ack 40 ------- 0 3.1 1.0 44 110
- 1.2008 2 1 ack 40 ------- 0 3.1 1.0 44 110
r 1.2008 2 1 ack 40 ------- 0 3.1 1.0 43 108
+ 1.2008 1 2 tcp 1040 ------- 0 1.0 3.1 63 113
r 1.2012 1 2 tcp 1040 ------- 0 1.0 3.1 47 81
+ 1.2012 2 3 tcp 1040 ------- 0 1.0 3.1 47 81
- 1.2012 2 3 tcp 1040 ------- 0 1.0 3.1 47 81
- 1.2016 1 2 tcp 1040 ------- 0 1.0 3.1 49 85
r 1.2112 2 3 tcp 1040 ------- 0 1.0 3.1 46 79
+ 1.2112 3 2 ack 40 ------- 0 3.1 1.0 46 114
- 1.2112 3 2 ack 40 ------- 0 3.1 1.0 46 114
r 1.2112 3 2 ack 40 ------- 0 3.1 1.0 45 112
+ 1.2112 2 1 ack 40 ------- 0 3.1 1.0 45 112
- 1.2112 2 1 ack 40 ------- 0 3.1 1.0 45 112
r 1.2112 2 1 ack 40 ------- 0 3.1 1.0 44 110
+ 1.2112 1 2 tcp 1040 ------- 0 1.0 3.1 64 115
r 1.2116 1 2 tcp 1040 ------- 0 1.0 3.1 48 83
+ 1.2116 2 3 tcp 1040 ------- 0 1.0 3.1 48 83
- 1.2116 2 3 tcp 1040 ------- 0 1.0 3.1 48 83
- 1.212 1 2 tcp 1040 ------- 0 1.0 3.1 50 87
r 1.2216 2 3 tcp 1040 ------- 0 1.0 3.1 47 81
+ 1.2216 3 2 ack 40 ------- 0 3.1 1.0 47 116
- 1.2216 3 2 ack 40 ------- 0 3.1 1.0 47 116
r 1.2216 3 2 ack 40 ------- 0 3.1 1.0 46 114
+ 1.2216 2 1 ack 40 ------- 0 3.1 1.0 46 114
- 1.2216 2 1 ack 40 ------- 0 3.1 1.0 46 114
r 1.2216 2 1 ack 40 ------- 0 3.1 1.0 45 112
+ 1.2216 1 2 tcp 1040 ------- 0 1.0 3.1 65 117
r 1.222 1 2 tcp 1040 ------- 0 1.0 3.1 49 85
+ 1.222 2 3 tcp 1040 ------- 0 1.0 3.1 49 85
- 1.222 2 3 tcp 1040 ------- 0 1.0 3.1 49 85
- 1.2224 1 2 tcp 1040 ------- 0 1.0 3.1 51 89
r 1.232 2 3 tcp 1040 ------- 0 1.0 3.1 48 83
+ 1.232 3 2 ack 40 ------- 0 3.1 1.0 48 118
- 1.232 3 2 ack 40 ------- 0 3.1 1.0 48 118
r 1.232 3 2 ack 40 ------- 0 3.1 1.0 47 116
+ 1.232 2 1 ack 40 ------- 0 3.1 1.0 47 116
- 1.232 2 1 ack 40 ------- 0 3.1 1.0 47 116
r 1.232 2 1 ack 40 ------- 0 3.1 1.0 46 114
+ 1.232 1 2 tcp 1040 ------- 0 1.0 3.1 66 119
r 1.2324 1 2 tcp 1040 ------- 0 1.0 3.1 50 87
+ 1.2324 2 3 tcp 1040 ------- 0 1.0 3.1 50 87
- 1.2324 2 3 tcp 1040 ------- 0 1.0 3.1 50 87
- 1.2328 1 2 tcp 1040 ------- 0 1.0 3.1 52 91
r 1.2424 2 3 tcp 1040 ------- 0 1.0 3.1 49 85
+ 1.2424 3 2 ack 40 ------- 0 3.1 1.0 49 120
- 1.2424 3 2 ack 40 ------- 0 3.1 1.0 49 120
r 1.2424 3 2 ack 40 ------- 0 3.1 1.0 48 118
+ 1.2424 2 1 ack 40 ------- 0 3.1 1.0 48 118
- 1.2424 2 1 ack 40 ------- 0 3.1 1.0 48 118
r 1.2424 2 1 ack 40 ------- 0 3.1 1.0 47 116
+ 1.2424 1 2 tcp 1040 ------- 0 1.0 3.1 67 121
r 1.2428 1 2 tcp 1040 ------- 0 1.0 3.1 51 89
+ 1.2428 2 3 tcp 1040 ------- 0 1.0 3.1 51 89
- 1.2428 2 3 tcp 1040 ------- 0 1.0 3.1 51 89
- 1.2432 1 2 tcp 1040 ------- 0 1.0 3.1 53 93
r 1.2528 2 3 tcp 1040 ------- 0 1.0 3.1 50 87
+ 1.2528 3 2 ack 40 ------- 0 3.1 1.0 50 122
- 1.2528 3 2 ack 40 ------- 0 3.1 1.0 50 122
r 1.2528 3 2 ack 40 ------- 0 3.1 1.0 49 120
+ 1.2528 2 1 ack 40 ------- 0 3.1 1.0 49 120
- 1.2528 2 1 ack 40 ------- 0 3.1 1.0 49 120
r 1.2528 2 1 ack 40 ------- 0 3.1 1.0 48 118
+ 1.2528 1 2 tcp 1040 ------- 0 1.0 3.1 68 123
r 1.2532 1 2 tcp 1040 ------- 0 1.0 3.1 52 91
+ 1.2532 2 3 tcp 1040 ------- 0 1.0 3.1 52 91
- 1.2532 2 3 tcp 1040 ------- 0 1.0 3.1 52 91
- 1.2536 1 2 tcp 1040 ------- 0 1.0 3.1 54 95
r 1.2632 2 3 tcp 1040 ------- 0 1.0 3.1 51 89
+ 1.2632 3 2 ack 40 ------- 0 3.1 1.0 51 124
- 1.2632 3 2 ack 40 ------- 0 3.1 1.0 51 124
r 1.2632 3 2 ack 40 ------- 0 3.1 1.0 50 122
+ 1.2632 2 1 ack 40 ------- 0 3.1 1.0 50 122
- 1.2632 2 1 ack 40 ------- 0 3.1 1.0 50 122
r 1.2632 2 1 ack 40 ------- 0 3.1 1.0 49 120
+ 1.2632 1 2 tcp 1040 ------- 0 1.0 3.1 69 125
r 1.2636 1 2 tcp 1040 ------- 0 1.0 3.1 53 93
+ 1.2636 2 3 tcp 1040 ------- 0 1.0 3.1 53 93
- 1.2636 2 3 tcp 1040 ------- 0 1.0 3.1 53 93
- 1.264 1 2 tcp 1040 ------- 0 1.0 3.1 55 97